Program Version,EnergyPlus, Version 24.1.0-9d7789a3ac, YMD=2025.04.29 02:19
1,5,Environment Title[],Latitude[deg],Longitude[deg],Time Zone[],Elevation[m]
2,8,Day of Simulation[],Month[],Day of Month[],DST Indicator[1=yes 0=no],Hour[],StartMinute[],EndMinute[],DayType
3,5,Cumulative Day of Simulation[],Month[],Day of Month[],DST Indicator[1=yes 0=no],DayType  ! When Daily Meters Requested
4,2,Cumulative Days of Simulation[],Month[]  ! When Monthly Meters Requested
5,1,Cumulative Days of Simulation[] ! When Run Period Meters Requested
6,1,Calendar Year of Simulation[] ! When Annual Meters Requested
192,1,DistrictCooling:Facility [J] !Hourly
143,1,DistrictHeatingWater:Facility [J] !Hourly
End of Data Dictionary
1,RUN PERIOD 1,   1.37, 103.98,   8.00,  16.00
2,1, 1, 1, 0, 1, 0.00,60.00,Sunday
143,105981539.50724603
192,0.0
2,1, 1, 1, 0, 2, 0.00,60.00,Sunday
143,119819723.81008583
192,0.0
2,1, 1, 1, 0, 3, 0.00,60.00,Sunday
143,137457260.78173557
192,0.0
2,1, 1, 1, 0, 4, 0.00,60.00,Sunday
143,161097832.01133505
192,0.0
2,1, 1, 1, 0, 5, 0.00,60.00,Sunday
143,185368039.6544431
192,0.0
2,1, 1, 1, 0, 6, 0.00,60.00,Sunday
143,204747035.42941195
192,0.0
2,1, 1, 1, 0, 7, 0.00,60.00,Sunday
143,217146887.4327786
192,0.0
2,1, 1, 1, 0, 8, 0.00,60.00,Sunday
143,211783313.15685806
192,0.0
2,1, 1, 1, 0, 9, 0.00,60.00,Sunday
143,128414657.23464464
192,0.0
2,1, 1, 1, 0,10, 0.00,60.00,Sunday
143,18638467.02392497
192,22045038.13772779
2,1, 1, 1, 0,11, 0.00,60.00,Sunday
143,0.0
192,164315443.32974148
2,1, 1, 1, 0,12, 0.00,60.00,Sunday
143,0.0
192,299644345.6898496
2,1, 1, 1, 0,13, 0.00,60.00,Sunday
143,0.0
192,403342777.1240323
2,1, 1, 1, 0,14, 0.00,60.00,Sunday
143,0.0
192,474749395.07829815
2,1, 1, 1, 0,15, 0.00,60.00,Sunday
143,0.0
192,509364316.98232025
2,1, 1, 1, 0,16, 0.00,60.00,Sunday
143,0.0
192,494576778.3501175
2,1, 1, 1, 0,17, 0.00,60.00,Sunday
143,0.0
192,432398923.41801614
2,1, 1, 1, 0,18, 0.00,60.00,Sunday
143,0.0
192,307510067.1655087
2,1, 1, 1, 0,19, 0.00,60.00,Sunday
143,0.0
192,161456079.3869689
2,1, 1, 1, 0,20, 0.00,60.00,Sunday
143,0.0
192,64295624.082495615
2,1, 1, 1, 0,21, 0.00,60.00,Sunday
143,3126419.041138329
192,9791960.01385152
2,1, 1, 1, 0,22, 0.00,60.00,Sunday
143,38503691.44289335
192,0.0
2,1, 1, 1, 0,23, 0.00,60.00,Sunday
143,76321610.41891958
192,0.0
2,1, 1, 1, 0,24, 0.00,60.00,Sunday
143,93423842.72821695
192,0.0
2,2, 1, 2, 0, 1, 0.00,60.00,Monday
143,105373325.64683881
192,0.0
2,2, 1, 2, 0, 2, 0.00,60.00,Monday
143,120495973.06318873
192,0.0
2,2, 1, 2, 0, 3, 0.00,60.00,Monday
143,138007764.30541432
192,0.0
2,2, 1, 2, 0, 4, 0.00,60.00,Monday
143,154630802.17169762
192,0.0
2,2, 1, 2, 0, 5, 0.00,60.00,Monday
143,170982229.07414028
192,0.0
2,2, 1, 2, 0, 6, 0.00,60.00,Monday
143,180369754.73155922
192,0.0
2,2, 1, 2, 0, 7, 0.00,60.00,Monday
143,182463418.3306927
192,0.0
2,2, 1, 2, 0, 8, 0.00,60.00,Monday
143,175209456.98909658
192,0.0
2,2, 1, 2, 0, 9, 0.00,60.00,Monday
143,100402825.10809489
192,0.0
2,2, 1, 2, 0,10, 0.00,60.00,Monday
143,10766389.070256848
192,28696180.420654997
2,2, 1, 2, 0,11, 0.00,60.00,Monday
143,0.0
192,167992794.6056023
2,2, 1, 2, 0,12, 0.00,60.00,Monday
143,1.7462298274040222e-8
192,314195160.5240447
2,2, 1, 2, 0,13, 0.00,60.00,Monday
143,3.4924596548080444e-8
192,444635275.5391245
2,2, 1, 2, 0,14, 0.00,60.00,Monday
143,0.0
192,551872307.924144
2,2, 1, 2, 0,15, 0.00,60.00,Monday
143,1.7462298274040222e-8
192,581022072.7913254
2,2, 1, 2, 0,16, 0.00,60.00,Monday
143,0.0
192,543937054.3004775
2,2, 1, 2, 0,17, 0.00,60.00,Monday
143,0.0
192,455245650.6792216
2,2, 1, 2, 0,18, 0.00,60.00,Monday
143,0.0
192,320001751.6642026
2,2, 1, 2, 0,19, 0.00,60.00,Monday
143,0.0
192,174007886.58943605
2,2, 1, 2, 0,20, 0.00,60.00,Monday
143,0.0
192,79198932.11904396
2,2, 1, 2, 0,21, 0.00,60.00,Monday
143,0.0
192,27370167.28764809
2,2, 1, 2, 0,22, 0.00,60.00,Monday
143,6523644.186970782
192,1216044.6128281758
2,2, 1, 2, 0,23, 0.00,60.00,Monday
143,32452515.290975336
192,0.0
2,2, 1, 2, 0,24, 0.00,60.00,Monday
143,50030708.974149466
192,0.0
2,3, 1, 3, 0, 1, 0.00,60.00,Tuesday
143,63050917.06120784
192,0.0
2,3, 1, 3, 0, 2, 0.00,60.00,Tuesday
143,80794222.59732293
192,0.0
2,3, 1, 3, 0, 3, 0.00,60.00,Tuesday
143,96838868.8708839
192,0.0
2,3, 1, 3, 0, 4, 0.00,60.00,Tuesday
143,113228648.72960514
192,0.0
2,3, 1, 3, 0, 5, 0.00,60.00,Tuesday
143,130969943.12224865
192,0.0
2,3, 1, 3, 0, 6, 0.00,60.00,Tuesday
143,140300176.17699844
192,0.0
2,3, 1, 3, 0, 7, 0.00,60.00,Tuesday
143,139632902.638363
192,0.0
2,3, 1, 3, 0, 8, 0.00,60.00,Tuesday
143,127460868.0214802
192,0.0
2,3, 1, 3, 0, 9, 0.00,60.00,Tuesday
143,49283803.16341174
192,0.0
2,3, 1, 3, 0,10, 0.00,60.00,Tuesday
143,0.0
192,117625608.65631327
2,3, 1, 3, 0,11, 0.00,60.00,Tuesday
143,0.0
192,384206206.78099674
2,3, 1, 3, 0,12, 0.00,60.00,Tuesday
143,0.0
192,681761198.7022634
2,3, 1, 3, 0,13, 0.00,60.00,Tuesday
143,0.0
192,945771228.1967685
2,3, 1, 3, 0,14, 0.00,60.00,Tuesday
143,0.0
192,1148832494.35915
2,3, 1, 3, 0,15, 0.00,60.00,Tuesday
143,0.0
192,1224414556.7566547
2,3, 1, 3, 0,16, 0.00,60.00,Tuesday
143,1.0477378964424133e-7
192,1163622888.8110118
2,3, 1, 3, 0,17, 0.00,60.00,Tuesday
143,0.0
192,963053948.9777445
2,3, 1, 3, 0,18, 0.00,60.00,Tuesday
143,0.0
192,674391742.9652817
2,3, 1, 3, 0,19, 0.00,60.00,Tuesday
143,0.0
192,398610235.6247677
2,3, 1, 3, 0,20, 0.00,60.00,Tuesday
143,1.7462298274040222e-8
192,237033857.32724252
2,3, 1, 3, 0,21, 0.00,60.00,Tuesday
143,0.0
192,147263951.7921142
2,3, 1, 3, 0,22, 0.00,60.00,Tuesday
143,0.0
192,85657252.1614719
2,3, 1, 3, 0,23, 0.00,60.00,Tuesday
143,1.6370904631912708e-9
192,37973540.70899169
2,3, 1, 3, 0,24, 0.00,60.00,Tuesday
143,2746636.572865863
192,4817969.997599532
2,4, 1, 4, 0, 1, 0.00,60.00,Wednesday
143,23410481.78249728
192,0.0
2,4, 1, 4, 0, 2, 0.00,60.00,Wednesday
143,42357439.66885186
192,0.0
2,4, 1, 4, 0, 3, 0.00,60.00,Wednesday
143,52498943.902684145
192,0.0
2,4, 1, 4, 0, 4, 0.00,60.00,Wednesday
143,63353114.69576424
192,0.0
2,4, 1, 4, 0, 5, 0.00,60.00,Wednesday
143,78285473.18230249
192,0.0
2,4, 1, 4, 0, 6, 0.00,60.00,Wednesday
143,86805986.4583384
192,0.0
2,4, 1, 4, 0, 7, 0.00,60.00,Wednesday
143,91632076.85573786
192,0.0
2,4, 1, 4, 0, 8, 0.00,60.00,Wednesday
143,70377315.81545924
192,0.0
2,4, 1, 4, 0, 9, 0.00,60.00,Wednesday
143,40216114.18900552
192,0.0
2,4, 1, 4, 0,10, 0.00,60.00,Wednesday
143,1993447.4961731583
192,38355786.970497146
2,4, 1, 4, 0,11, 0.00,60.00,Wednesday
143,0.0
192,197573501.2735567
2,4, 1, 4, 0,12, 0.00,60.00,Wednesday
143,0.0
192,348590265.84956217
2,4, 1, 4, 0,13, 0.00,60.00,Wednesday
143,0.0
192,468805727.7389564
2,4, 1, 4, 0,14, 0.00,60.00,Wednesday
143,0.0
192,564872488.7031884
2,4, 1, 4, 0,15, 0.00,60.00,Wednesday
143,0.0
192,589128856.8063906
2,4, 1, 4, 0,16, 0.00,60.00,Wednesday
143,0.0
192,552256204.711694
2,4, 1, 4, 0,17, 0.00,60.00,Wednesday
143,0.0
192,464632718.8977343
2,4, 1, 4, 0,18, 0.00,60.00,Wednesday
143,0.0
192,328106835.9428173
2,4, 1, 4, 0,19, 0.00,60.00,Wednesday
143,0.0
192,174870420.73497605
2,4, 1, 4, 0,20, 0.00,60.00,Wednesday
143,0.0
192,69847688.19216052
2,4, 1, 4, 0,21, 0.00,60.00,Wednesday
143,0.0
192,17266491.026741263
2,4, 1, 4, 0,22, 0.00,60.00,Wednesday
143,14033396.870707257
192,0.0
2,4, 1, 4, 0,23, 0.00,60.00,Wednesday
143,36672315.89900084
192,0.0
2,4, 1, 4, 0,24, 0.00,60.00,Wednesday
143,52735322.179234594
192,0.0
2,5, 1, 5, 0, 1, 0.00,60.00,Thursday
143,63142520.66848885
192,0.0
2,5, 1, 5, 0, 2, 0.00,60.00,Thursday
143,75378625.91905087
192,0.0
2,5, 1, 5, 0, 3, 0.00,60.00,Thursday
143,88999002.85313284
192,0.0
2,5, 1, 5, 0, 4, 0.00,60.00,Thursday
143,102455536.51613504
192,0.0
2,5, 1, 5, 0, 5, 0.00,60.00,Thursday
143,115407165.8069284
192,0.0
2,5, 1, 5, 0, 6, 0.00,60.00,Thursday
143,127832553.3897048
192,0.0
2,5, 1, 5, 0, 7, 0.00,60.00,Thursday
143,140418709.795767
192,0.0
2,5, 1, 5, 0, 8, 0.00,60.00,Thursday
143,141549844.64856574
192,0.0
2,5, 1, 5, 0, 9, 0.00,60.00,Thursday
143,72417099.47452176
192,0.0
2,5, 1, 5, 0,10, 0.00,60.00,Thursday
143,2719651.059412351
192,46260666.76661341
2,5, 1, 5, 0,11, 0.00,60.00,Thursday
143,3.4924596548080444e-8
192,191729569.45971137
2,5, 1, 5, 0,12, 0.00,60.00,Thursday
143,0.0
192,342411736.74332154
2,5, 1, 5, 0,13, 0.00,60.00,Thursday
143,1.7462298274040222e-8
192,468928252.5807428
2,5, 1, 5, 0,14, 0.00,60.00,Thursday
143,0.0
192,563861550.485429
2,5, 1, 5, 0,15, 0.00,60.00,Thursday
143,0.0
192,527818468.92468625
2,5, 1, 5, 0,16, 0.00,60.00,Thursday
143,0.0
192,405597382.03104043
2,5, 1, 5, 0,17, 0.00,60.00,Thursday
143,0.0
192,270418703.75566393
2,5, 1, 5, 0,18, 0.00,60.00,Thursday
143,0.0
192,192466905.4238173
2,5, 1, 5, 0,19, 0.00,60.00,Thursday
143,6.548361852765083e-9
192,108314484.59555355
2,5, 1, 5, 0,20, 0.00,60.00,Thursday
143,0.0
192,30032648.38907773
2,5, 1, 5, 0,21, 0.00,60.00,Thursday
143,18505372.233353
192,0.0
2,5, 1, 5, 0,22, 0.00,60.00,Thursday
143,46204548.33361699
192,0.0
2,5, 1, 5, 0,23, 0.00,60.00,Thursday
143,64406676.79346935
192,0.0
2,5, 1, 5, 0,24, 0.00,60.00,Thursday
143,77873160.98063731
192,0.0
2,6, 1, 6, 0, 1, 0.00,60.00,Friday
143,93613382.58182164
192,0.0
2,6, 1, 6, 0, 2, 0.00,60.00,Friday
143,112826060.08009402
192,0.0
2,6, 1, 6, 0, 3, 0.00,60.00,Friday
143,127583446.92173585
192,0.0
2,6, 1, 6, 0, 4, 0.00,60.00,Friday
143,143660486.37108722
192,0.0
2,6, 1, 6, 0, 5, 0.00,60.00,Friday
143,159128414.39209694
192,0.0
2,6, 1, 6, 0, 6, 0.00,60.00,Friday
143,171906560.567813
192,0.0
2,6, 1, 6, 0, 7, 0.00,60.00,Friday
143,185942486.37280816
192,0.0
2,6, 1, 6, 0, 8, 0.00,60.00,Friday
143,188696910.55469826
192,0.0
2,6, 1, 6, 0, 9, 0.00,60.00,Friday
143,103913097.97777076
192,0.0
2,6, 1, 6, 0,10, 0.00,60.00,Friday
143,8458417.804932967
192,34654591.582794525
2,6, 1, 6, 0,11, 0.00,60.00,Friday
143,0.0
192,181321994.87723452
2,6, 1, 6, 0,12, 0.00,60.00,Friday
143,0.0
192,334335087.8729318
2,6, 1, 6, 0,13, 0.00,60.00,Friday
143,0.0
192,462456779.21662396
2,6, 1, 6, 0,14, 0.00,60.00,Friday
143,0.0
192,564904113.9980414
2,6, 1, 6, 0,15, 0.00,60.00,Friday
143,0.0
192,593623347.4637659
2,6, 1, 6, 0,16, 0.00,60.00,Friday
143,0.0
192,559294809.8499663
2,6, 1, 6, 0,17, 0.00,60.00,Friday
143,0.0
192,473961297.86576927
2,6, 1, 6, 0,18, 0.00,60.00,Friday
143,0.0
192,337985016.20580053
2,6, 1, 6, 0,19, 0.00,60.00,Friday
143,0.0
192,184477147.12944582
2,6, 1, 6, 0,20, 0.00,60.00,Friday
143,0.0
192,78259839.5809794
2,6, 1, 6, 0,21, 0.00,60.00,Friday
143,0.0
192,20784372.31760728
2,6, 1, 6, 0,22, 0.00,60.00,Friday
143,14998670.08228647
192,0.0
2,6, 1, 6, 0,23, 0.00,60.00,Friday
143,44159630.77414334
192,0.0
2,6, 1, 6, 0,24, 0.00,60.00,Friday
143,62056446.54967929
192,0.0
2,7, 1, 7, 0, 1, 0.00,60.00,Saturday
143,76623317.73006013
192,0.0
2,7, 1, 7, 0, 2, 0.00,60.00,Saturday
143,95901711.89198498
192,0.0
2,7, 1, 7, 0, 3, 0.00,60.00,Saturday
143,117363351.98823377
192,0.0
2,7, 1, 7, 0, 4, 0.00,60.00,Saturday
143,142083454.37811697
192,0.0
2,7, 1, 7, 0, 5, 0.00,60.00,Saturday
143,173346414.28922352
192,0.0
2,7, 1, 7, 0, 6, 0.00,60.00,Saturday
143,176808876.93831748
192,0.0
2,7, 1, 7, 0, 7, 0.00,60.00,Saturday
143,155171181.546011
192,0.0
2,7, 1, 7, 0, 8, 0.00,60.00,Saturday
143,126954380.17557824
192,0.0
2,7, 1, 7, 0, 9, 0.00,60.00,Saturday
143,55384297.30098392
192,0.0
2,7, 1, 7, 0,10, 0.00,60.00,Saturday
143,1284774.3678162335
192,47917955.490259595
2,7, 1, 7, 0,11, 0.00,60.00,Saturday
143,0.0
192,186939832.40235385
2,7, 1, 7, 0,12, 0.00,60.00,Saturday
143,0.0
192,339752834.17215216
2,7, 1, 7, 0,13, 0.00,60.00,Saturday
143,0.0
192,477001917.55911803
2,7, 1, 7, 0,14, 0.00,60.00,Saturday
143,0.0
192,593210606.4925714
2,7, 1, 7, 0,15, 0.00,60.00,Saturday
143,0.0
192,626678228.6604025
2,7, 1, 7, 0,16, 0.00,60.00,Saturday
143,0.0
192,587549289.1997598
2,7, 1, 7, 0,17, 0.00,60.00,Saturday
143,0.0
192,496783948.3200262
2,7, 1, 7, 0,18, 0.00,60.00,Saturday
143,0.0
192,349918388.88121104
2,7, 1, 7, 0,19, 0.00,60.00,Saturday
143,0.0
192,191224599.59904033
2,7, 1, 7, 0,20, 0.00,60.00,Saturday
143,0.0
192,89192797.14599696
2,7, 1, 7, 0,21, 0.00,60.00,Saturday
143,0.0
192,31975139.577032622
2,7, 1, 7, 0,22, 0.00,60.00,Saturday
143,8759604.953004839
192,1542786.2808380732
2,7, 1, 7, 0,23, 0.00,60.00,Saturday
143,41967140.524690285
192,0.0
2,7, 1, 7, 0,24, 0.00,60.00,Saturday
143,65289798.5606766
192,0.0
2,8, 1, 8, 0, 1, 0.00,60.00,Sunday
143,79567675.63973847
192,0.0
2,8, 1, 8, 0, 2, 0.00,60.00,Sunday
143,96365307.262315
192,0.0
2,8, 1, 8, 0, 3, 0.00,60.00,Sunday
143,114854550.11216551
192,0.0
2,8, 1, 8, 0, 4, 0.00,60.00,Sunday
143,133920840.85887916
192,0.0
2,8, 1, 8, 0, 5, 0.00,60.00,Sunday
143,154133257.67847952
192,0.0
2,8, 1, 8, 0, 6, 0.00,60.00,Sunday
143,167079378.53275478
192,0.0
2,8, 1, 8, 0, 7, 0.00,60.00,Sunday
143,171959844.16413903
192,0.0
2,8, 1, 8, 0, 8, 0.00,60.00,Sunday
143,164117141.45675507
192,0.0
2,8, 1, 8, 0, 9, 0.00,60.00,Sunday
143,76410781.27866226
192,0.0
2,8, 1, 8, 0,10, 0.00,60.00,Sunday
143,0.0
192,101572859.85235016
2,8, 1, 8, 0,11, 0.00,60.00,Sunday
143,0.0
192,371728117.56613135
2,8, 1, 8, 0,12, 0.00,60.00,Sunday
143,0.0
192,669952926.5459899
2,8, 1, 8, 0,13, 0.00,60.00,Sunday
143,0.0
192,931929084.3665297
2,8, 1, 8, 0,14, 0.00,60.00,Sunday
143,0.0
192,1137003320.163568
2,8, 1, 8, 0,15, 0.00,60.00,Sunday
143,0.0
192,1255450080.4298227
2,8, 1, 8, 0,16, 0.00,60.00,Sunday
143,0.0
192,1251205775.5368338
2,8, 1, 8, 0,17, 0.00,60.00,Sunday
143,0.0
192,1115015340.0040126
2,8, 1, 8, 0,18, 0.00,60.00,Sunday
143,0.0
192,842424704.063627
2,8, 1, 8, 0,19, 0.00,60.00,Sunday
143,0.0
192,506406997.418413
2,8, 1, 8, 0,20, 0.00,60.00,Sunday
143,0.0
192,292046305.875229
2,8, 1, 8, 0,21, 0.00,60.00,Sunday
143,0.0
192,184477336.13412458
2,8, 1, 8, 0,22, 0.00,60.00,Sunday
143,0.0
192,109237745.91901521
2,8, 1, 8, 0,23, 0.00,60.00,Sunday
143,0.0
192,47858953.11735681
2,8, 1, 8, 0,24, 0.00,60.00,Sunday
143,1939740.6114703976
192,6448972.726368158
2,9, 1, 9, 0, 1, 0.00,60.00,Monday
143,31627155.120461248
192,0.0
2,9, 1, 9, 0, 2, 0.00,60.00,Monday
143,66557280.61196361
192,0.0
2,9, 1, 9, 0, 3, 0.00,60.00,Monday
143,86395477.47017057
192,0.0
2,9, 1, 9, 0, 4, 0.00,60.00,Monday
143,97866238.63995445
192,0.0
2,9, 1, 9, 0, 5, 0.00,60.00,Monday
143,109930775.02475114
192,0.0
2,9, 1, 9, 0, 6, 0.00,60.00,Monday
143,120543017.27851792
192,0.0
2,9, 1, 9, 0, 7, 0.00,60.00,Monday
143,131681206.93681324
192,0.0
2,9, 1, 9, 0, 8, 0.00,60.00,Monday
143,131193287.53886971
192,0.0
2,9, 1, 9, 0, 9, 0.00,60.00,Monday
143,63739974.76437358
192,0.0
2,9, 1, 9, 0,10, 0.00,60.00,Monday
143,0.0
192,74220240.99681666
2,9, 1, 9, 0,11, 0.00,60.00,Monday
143,0.0
192,254959987.93978387
2,9, 1, 9, 0,12, 0.00,60.00,Monday
143,0.0
192,444728730.5571949
2,9, 1, 9, 0,13, 0.00,60.00,Monday
143,0.0
192,626494876.379797
2,9, 1, 9, 0,14, 0.00,60.00,Monday
143,0.0
192,762794612.108285
2,9, 1, 9, 0,15, 0.00,60.00,Monday
143,0.0
192,782387875.2221129
2,9, 1, 9, 0,16, 0.00,60.00,Monday
143,0.0
192,725255305.6389085
2,9, 1, 9, 0,17, 0.00,60.00,Monday
143,0.0
192,607291846.2392792
2,9, 1, 9, 0,18, 0.00,60.00,Monday
143,0.0
192,463947917.79579204
2,9, 1, 9, 0,19, 0.00,60.00,Monday
143,0.0
192,281346589.6560992
2,9, 1, 9, 0,20, 0.00,60.00,Monday
143,0.0
192,155513833.36592147
2,9, 1, 9, 0,21, 0.00,60.00,Monday
143,0.0
192,86104359.48137176
2,9, 1, 9, 0,22, 0.00,60.00,Monday
143,0.0
192,25617341.062826704
2,9, 1, 9, 0,23, 0.00,60.00,Monday
143,29582241.84369199
192,0.0
2,9, 1, 9, 0,24, 0.00,60.00,Monday
143,62177979.33808942
192,0.0
2,10, 1,10, 0, 1, 0.00,60.00,Tuesday
143,79510798.97405772
192,0.0
2,10, 1,10, 0, 2, 0.00,60.00,Tuesday
143,94561568.3941721
192,0.0
2,10, 1,10, 0, 3, 0.00,60.00,Tuesday
143,106029217.97887337
192,0.0
2,10, 1,10, 0, 4, 0.00,60.00,Tuesday
143,121256698.27951379
192,0.0
2,10, 1,10, 0, 5, 0.00,60.00,Tuesday
143,135562543.1097618
192,0.0
2,10, 1,10, 0, 6, 0.00,60.00,Tuesday
143,135001621.92855614
192,0.0
2,10, 1,10, 0, 7, 0.00,60.00,Tuesday
143,119821318.60151294
192,0.0
2,10, 1,10, 0, 8, 0.00,60.00,Tuesday
143,97429847.71384132
192,0.0
2,10, 1,10, 0, 9, 0.00,60.00,Tuesday
143,42840053.02408417
192,0.0
2,10, 1,10, 0,10, 0.00,60.00,Tuesday
143,422316.584756831
192,31251605.315349527
2,10, 1,10, 0,11, 0.00,60.00,Tuesday
143,0.0
192,148947998.70976374
2,10, 1,10, 0,12, 0.00,60.00,Tuesday
143,0.0
192,293994938.02760744
2,10, 1,10, 0,13, 0.00,60.00,Tuesday
143,0.0
192,421983992.3430376
2,10, 1,10, 0,14, 0.00,60.00,Tuesday
143,0.0
192,521077491.14139855
2,10, 1,10, 0,15, 0.00,60.00,Tuesday
143,0.0
192,563564177.6244869
2,10, 1,10, 0,16, 0.00,60.00,Tuesday
143,0.0
192,539574804.3660767
2,10, 1,10, 0,17, 0.00,60.00,Tuesday
143,0.0
192,459220553.99320984
2,10, 1,10, 0,18, 0.00,60.00,Tuesday
143,0.0
192,328909330.0318639
2,10, 1,10, 0,19, 0.00,60.00,Tuesday
143,0.0
192,182503648.66095072
2,10, 1,10, 0,20, 0.00,60.00,Tuesday
143,0.0
192,83922951.40271646
2,10, 1,10, 0,21, 0.00,60.00,Tuesday
143,0.0
192,25350310.66034962
2,10, 1,10, 0,22, 0.00,60.00,Tuesday
143,21223932.96095864
192,0.0
2,10, 1,10, 0,23, 0.00,60.00,Tuesday
143,62048981.65394012
192,0.0
2,10, 1,10, 0,24, 0.00,60.00,Tuesday
143,79292036.71268263
192,0.0
2,11, 1,11, 0, 1, 0.00,60.00,Wednesday
143,85826879.0052257
192,0.0
2,11, 1,11, 0, 2, 0.00,60.00,Wednesday
143,96689528.55266418
192,0.0
2,11, 1,11, 0, 3, 0.00,60.00,Wednesday
143,104454815.44095424
192,0.0
2,11, 1,11, 0, 4, 0.00,60.00,Wednesday
143,110382195.46496707
192,0.0
2,11, 1,11, 0, 5, 0.00,60.00,Wednesday
143,115289408.29477105
192,0.0
2,11, 1,11, 0, 6, 0.00,60.00,Wednesday
143,108838184.89449343
192,0.0
2,11, 1,11, 0, 7, 0.00,60.00,Wednesday
143,97156135.43251441
192,0.0
2,11, 1,11, 0, 8, 0.00,60.00,Wednesday
143,75195870.09074624
192,0.0
2,11, 1,11, 0, 9, 0.00,60.00,Wednesday
143,19918557.443443313
192,808817.3532184208
2,11, 1,11, 0,10, 0.00,60.00,Wednesday
143,0.0
192,69709552.9238335
2,11, 1,11, 0,11, 0.00,60.00,Wednesday
143,0.0
192,207942977.11773682
2,11, 1,11, 0,12, 0.00,60.00,Wednesday
143,0.0
192,346660301.646034
2,11, 1,11, 0,13, 0.00,60.00,Wednesday
143,0.0
192,457428684.2042736
2,11, 1,11, 0,14, 0.00,60.00,Wednesday
143,0.0
192,542959711.976604
2,11, 1,11, 0,15, 0.00,60.00,Wednesday
143,0.0
192,561511406.0565557
2,11, 1,11, 0,16, 0.00,60.00,Wednesday
143,0.0
192,523953620.9388621
2,11, 1,11, 0,17, 0.00,60.00,Wednesday
143,0.0
192,379007138.9289836
2,11, 1,11, 0,18, 0.00,60.00,Wednesday
143,0.0
192,259403482.2142917
2,11, 1,11, 0,19, 0.00,60.00,Wednesday
143,0.0
192,139241071.4855703
2,11, 1,11, 0,20, 0.00,60.00,Wednesday
143,245454.149127379
192,27252700.793701593
2,11, 1,11, 0,21, 0.00,60.00,Wednesday
143,28565591.821592208
192,0.0
2,11, 1,11, 0,22, 0.00,60.00,Wednesday
143,68072487.50474286
192,0.0
2,11, 1,11, 0,23, 0.00,60.00,Wednesday
143,99587079.6741191
192,0.0
2,11, 1,11, 0,24, 0.00,60.00,Wednesday
143,113609286.87268806
192,0.0
2,12, 1,12, 0, 1, 0.00,60.00,Thursday
143,126006272.85075273
192,0.0
2,12, 1,12, 0, 2, 0.00,60.00,Thursday
143,141784543.86511597
192,0.0
2,12, 1,12, 0, 3, 0.00,60.00,Thursday
143,157987381.0147364
192,0.0
2,12, 1,12, 0, 4, 0.00,60.00,Thursday
143,168790440.60281482
192,0.0
2,12, 1,12, 0, 5, 0.00,60.00,Thursday
143,176661377.0581544
192,0.0
2,12, 1,12, 0, 6, 0.00,60.00,Thursday
143,175419682.7527775
192,0.0
2,12, 1,12, 0, 7, 0.00,60.00,Thursday
143,155556559.92972896
192,0.0
2,12, 1,12, 0, 8, 0.00,60.00,Thursday
143,121888255.00957485
192,0.0
2,12, 1,12, 0, 9, 0.00,60.00,Thursday
143,51871733.05658907
192,0.0
2,12, 1,12, 0,10, 0.00,60.00,Thursday
143,1385228.7767400965
192,48960675.218506575
2,12, 1,12, 0,11, 0.00,60.00,Thursday
143,0.0
192,189343821.9854315
2,12, 1,12, 0,12, 0.00,60.00,Thursday
143,0.0
192,336728359.69102854
2,12, 1,12, 0,13, 0.00,60.00,Thursday
143,0.0
192,461045884.8666107
2,12, 1,12, 0,14, 0.00,60.00,Thursday
143,0.0
192,559670082.5212563
2,12, 1,12, 0,15, 0.00,60.00,Thursday
143,0.0
192,590741027.0449299
2,12, 1,12, 0,16, 0.00,60.00,Thursday
143,0.0
192,565523067.8548483
2,12, 1,12, 0,17, 0.00,60.00,Thursday
143,0.0
192,497794023.27617556
2,12, 1,12, 0,18, 0.00,60.00,Thursday
143,0.0
192,407632889.7846891
2,12, 1,12, 0,19, 0.00,60.00,Thursday
143,0.0
192,242407241.47002748
2,12, 1,12, 0,20, 0.00,60.00,Thursday
143,0.0
192,118185177.7107512
2,12, 1,12, 0,21, 0.00,60.00,Thursday
143,0.0
192,51454478.5274824
2,12, 1,12, 0,22, 0.00,60.00,Thursday
143,4230927.331976686
192,6741935.1839668555
2,12, 1,12, 0,23, 0.00,60.00,Thursday
143,41653934.22531494
192,0.0
2,12, 1,12, 0,24, 0.00,60.00,Thursday
143,72191088.94755207
192,0.0
2,13, 1,13, 0, 1, 0.00,60.00,Friday
143,89403243.41838731
192,0.0
2,13, 1,13, 0, 2, 0.00,60.00,Friday
143,109386191.3813252
192,0.0
2,13, 1,13, 0, 3, 0.00,60.00,Friday
143,132447585.38602456
192,0.0
2,13, 1,13, 0, 4, 0.00,60.00,Friday
143,155602566.73821554
192,0.0
2,13, 1,13, 0, 5, 0.00,60.00,Friday
143,177984336.586573
192,0.0
2,13, 1,13, 0, 6, 0.00,60.00,Friday
143,170597265.33429527
192,0.0
2,13, 1,13, 0, 7, 0.00,60.00,Friday
143,144248333.69977516
192,0.0
2,13, 1,13, 0, 8, 0.00,60.00,Friday
143,107654239.05863425
192,0.0
2,13, 1,13, 0, 9, 0.00,60.00,Friday
143,31084433.840656605
192,378870.11873465957
2,13, 1,13, 0,10, 0.00,60.00,Friday
143,0.0
192,75965589.90305501
2,13, 1,13, 0,11, 0.00,60.00,Friday
143,0.0
192,206777248.00446716
2,13, 1,13, 0,12, 0.00,60.00,Friday
143,0.0
192,348325655.17384005
2,13, 1,13, 0,13, 0.00,60.00,Friday
143,0.0
192,469549821.06665707
2,13, 1,13, 0,14, 0.00,60.00,Friday
143,0.0
192,566047382.2696965
2,13, 1,13, 0,15, 0.00,60.00,Friday
143,0.0
192,594218409.5718877
2,13, 1,13, 0,16, 0.00,60.00,Friday
143,0.0
192,567868372.6117187
2,13, 1,13, 0,17, 0.00,60.00,Friday
143,0.0
192,491629840.05224967
2,13, 1,13, 0,18, 0.00,60.00,Friday
143,0.0
192,359951752.43061674
2,13, 1,13, 0,19, 0.00,60.00,Friday
143,0.0
192,207398774.6402657
2,13, 1,13, 0,20, 0.00,60.00,Friday
143,0.0
192,109374741.71705325
2,13, 1,13, 0,21, 0.00,60.00,Friday
143,0.0
192,50004994.505148135
2,13, 1,13, 0,22, 0.00,60.00,Friday
143,3818696.81659285
192,7079941.057120683
2,13, 1,13, 0,23, 0.00,60.00,Friday
143,38492149.40276938
192,0.0
2,13, 1,13, 0,24, 0.00,60.00,Friday
143,63527939.02711329
192,0.0
2,14, 1,14, 0, 1, 0.00,60.00,Saturday
143,73863817.29732828
192,0.0
2,14, 1,14, 0, 2, 0.00,60.00,Saturday
143,85566808.31619349
192,0.0
2,14, 1,14, 0, 3, 0.00,60.00,Saturday
143,97181575.68960273
192,0.0
2,14, 1,14, 0, 4, 0.00,60.00,Saturday
143,106477956.91757086
192,0.0
2,14, 1,14, 0, 5, 0.00,60.00,Saturday
143,116234209.6876393
192,0.0
2,14, 1,14, 0, 6, 0.00,60.00,Saturday
143,117052110.09331074
192,0.0
2,14, 1,14, 0, 7, 0.00,60.00,Saturday
143,111081460.78457458
192,0.0
2,14, 1,14, 0, 8, 0.00,60.00,Saturday
143,100398199.2182183
192,0.0
2,14, 1,14, 0, 9, 0.00,60.00,Saturday
143,69075367.86080885
192,0.0
2,14, 1,14, 0,10, 0.00,60.00,Saturday
143,31456563.901874192
192,0.0
2,14, 1,14, 0,11, 0.00,60.00,Saturday
143,9798807.584144454
192,228504.73054856996
2,14, 1,14, 0,12, 0.00,60.00,Saturday
143,0.0
192,45173810.389633596
2,14, 1,14, 0,13, 0.00,60.00,Saturday
143,0.0
192,137598713.87723565
2,14, 1,14, 0,14, 0.00,60.00,Saturday
143,0.0
192,230001903.3566363
2,14, 1,14, 0,15, 0.00,60.00,Saturday
143,0.0
192,309973077.76266867
2,14, 1,14, 0,16, 0.00,60.00,Saturday
143,0.0
192,347588382.62187636
2,14, 1,14, 0,17, 0.00,60.00,Saturday
143,0.0
192,323858916.24841076
2,14, 1,14, 0,18, 0.00,60.00,Saturday
143,0.0
192,230929175.3601404
2,14, 1,14, 0,19, 0.00,60.00,Saturday
143,0.0
192,106429181.07397388
2,14, 1,14, 0,20, 0.00,60.00,Saturday
143,233814.0972025227
192,22011757.779067475
2,14, 1,14, 0,21, 0.00,60.00,Saturday
143,24029842.82016316
192,0.0
2,14, 1,14, 0,22, 0.00,60.00,Saturday
143,51018304.69892985
192,0.0
2,14, 1,14, 0,23, 0.00,60.00,Saturday
143,69064204.3051726
192,0.0
2,14, 1,14, 0,24, 0.00,60.00,Saturday
143,82698658.16192663
192,0.0
2,15, 1,15, 0, 1, 0.00,60.00,Sunday
143,89128265.8030734
192,0.0
2,15, 1,15, 0, 2, 0.00,60.00,Sunday
143,94912550.93578383
192,0.0
2,15, 1,15, 0, 3, 0.00,60.00,Sunday
143,100939732.3935213
192,0.0
2,15, 1,15, 0, 4, 0.00,60.00,Sunday
143,104432965.74200642
192,0.0
2,15, 1,15, 0, 5, 0.00,60.00,Sunday
143,90802721.12938327
192,0.0
2,15, 1,15, 0, 6, 0.00,60.00,Sunday
143,89762600.89695469
192,0.0
2,15, 1,15, 0, 7, 0.00,60.00,Sunday
143,88338350.26310539
192,0.0
2,15, 1,15, 0, 8, 0.00,60.00,Sunday
143,68355588.28095749
192,0.0
2,15, 1,15, 0, 9, 0.00,60.00,Sunday
143,19139862.2646892
192,556079.6775074209
2,15, 1,15, 0,10, 0.00,60.00,Sunday
143,0.0
192,59702120.957566254
2,15, 1,15, 0,11, 0.00,60.00,Sunday
143,0.0
192,191422807.71957785
2,15, 1,15, 0,12, 0.00,60.00,Sunday
143,0.0
192,330248084.8217831
2,15, 1,15, 0,13, 0.00,60.00,Sunday
143,0.0
192,459959700.57996166
2,15, 1,15, 0,14, 0.00,60.00,Sunday
143,0.0
192,545278810.7494212
2,15, 1,15, 0,15, 0.00,60.00,Sunday
143,0.0
192,566872150.9940202
2,15, 1,15, 0,16, 0.00,60.00,Sunday
143,0.0
192,536949114.7601081
2,15, 1,15, 0,17, 0.00,60.00,Sunday
143,0.0
192,455225409.92297727
2,15, 1,15, 0,18, 0.00,60.00,Sunday
143,0.0
192,317803588.0577278
2,15, 1,15, 0,19, 0.00,60.00,Sunday
143,0.0
192,175672774.69712165
2,15, 1,15, 0,20, 0.00,60.00,Sunday
143,0.0
192,85118375.65725444
2,15, 1,15, 0,21, 0.00,60.00,Sunday
143,0.0
192,33056362.064753752
2,15, 1,15, 0,22, 0.00,60.00,Sunday
143,5686769.061381044
192,2242936.809144447
2,15, 1,15, 0,23, 0.00,60.00,Sunday
143,31983421.62419334
192,0.0
2,15, 1,15, 0,24, 0.00,60.00,Sunday
143,49438618.189805046
192,0.0
2,16, 1,16, 0, 1, 0.00,60.00,Monday
143,59496156.99469191
192,0.0
2,16, 1,16, 0, 2, 0.00,60.00,Monday
143,70399736.81449787
192,0.0
2,16, 1,16, 0, 3, 0.00,60.00,Monday
143,80683198.84309733
192,0.0
2,16, 1,16, 0, 4, 0.00,60.00,Monday
143,91663003.85628068
192,0.0
2,16, 1,16, 0, 5, 0.00,60.00,Monday
143,101758902.96462236
192,0.0
2,16, 1,16, 0, 6, 0.00,60.00,Monday
143,106982121.96644762
192,0.0
2,16, 1,16, 0, 7, 0.00,60.00,Monday
143,107664219.30112909
192,0.0
2,16, 1,16, 0, 8, 0.00,60.00,Monday
143,104969862.69747943
192,0.0
2,16, 1,16, 0, 9, 0.00,60.00,Monday
143,86930181.51873504
192,0.0
2,16, 1,16, 0,10, 0.00,60.00,Monday
143,58759757.96148819
192,0.0
2,16, 1,16, 0,11, 0.00,60.00,Monday
143,33499380.402804542
192,0.0
2,16, 1,16, 0,12, 0.00,60.00,Monday
143,11677918.190951273
192,1625314.990529185
2,16, 1,16, 0,13, 0.00,60.00,Monday
143,0.0
192,24874887.702105936
2,16, 1,16, 0,14, 0.00,60.00,Monday
143,0.0
192,46209545.3811893
2,16, 1,16, 0,15, 0.00,60.00,Monday
143,0.0
192,56760122.17621344
2,16, 1,16, 0,16, 0.00,60.00,Monday
143,0.0
192,52797958.43866033
2,16, 1,16, 0,17, 0.00,60.00,Monday
143,0.0
192,35760049.35326333
2,16, 1,16, 0,18, 0.00,60.00,Monday
143,998246.9017323107
192,11637071.074372668
2,16, 1,16, 0,19, 0.00,60.00,Monday
143,27026663.247604154
192,0.0
2,16, 1,16, 0,20, 0.00,60.00,Monday
143,56757145.07837194
192,0.0
2,16, 1,16, 0,21, 0.00,60.00,Monday
143,82988834.59474692
192,0.0
2,16, 1,16, 0,22, 0.00,60.00,Monday
143,108437405.18290722
192,0.0
2,16, 1,16, 0,23, 0.00,60.00,Monday
143,140966053.12902933
192,0.0
2,16, 1,16, 0,24, 0.00,60.00,Monday
143,160245151.09604645
192,0.0
2,17, 1,17, 0, 1, 0.00,60.00,Tuesday
143,164133126.36451918
192,0.0
2,17, 1,17, 0, 2, 0.00,60.00,Tuesday
143,165919174.55208027
192,0.0
2,17, 1,17, 0, 3, 0.00,60.00,Tuesday
143,165509312.04301733
192,0.0
2,17, 1,17, 0, 4, 0.00,60.00,Tuesday
143,165935215.28843677
192,0.0
2,17, 1,17, 0, 5, 0.00,60.00,Tuesday
143,166594765.9943485
192,0.0
2,17, 1,17, 0, 6, 0.00,60.00,Tuesday
143,154381618.14465833
192,0.0
2,17, 1,17, 0, 7, 0.00,60.00,Tuesday
143,134192087.04713115
192,0.0
2,17, 1,17, 0, 8, 0.00,60.00,Tuesday
143,110924791.43940921
192,0.0
2,17, 1,17, 0, 9, 0.00,60.00,Tuesday
143,68752455.88148372
192,0.0
2,17, 1,17, 0,10, 0.00,60.00,Tuesday
143,28862500.5144177
192,0.0
2,17, 1,17, 0,11, 0.00,60.00,Tuesday
143,13775929.876927797
192,0.0
2,17, 1,17, 0,12, 0.00,60.00,Tuesday
143,0.0
192,96700565.9691228
2,17, 1,17, 0,13, 0.00,60.00,Tuesday
143,0.0
192,311491935.43905085
2,17, 1,17, 0,14, 0.00,60.00,Tuesday
143,0.0
192,446162190.4622144
2,17, 1,17, 0,15, 0.00,60.00,Tuesday
143,0.0
192,499712363.88863575
2,17, 1,17, 0,16, 0.00,60.00,Tuesday
143,0.0
192,495214178.2317596
2,17, 1,17, 0,17, 0.00,60.00,Tuesday
143,0.0
192,437876327.8312869
2,17, 1,17, 0,18, 0.00,60.00,Tuesday
143,0.0
192,322084539.3668501
2,17, 1,17, 0,19, 0.00,60.00,Tuesday
143,0.0
192,179361660.015645
2,17, 1,17, 0,20, 0.00,60.00,Tuesday
143,0.0
192,88327562.14732349
2,17, 1,17, 0,21, 0.00,60.00,Tuesday
143,0.0
192,35371346.593007386
2,17, 1,17, 0,22, 0.00,60.00,Tuesday
143,7340955.638091965
192,2423080.7394490577
2,17, 1,17, 0,23, 0.00,60.00,Tuesday
143,39992590.90485131
192,0.0
2,17, 1,17, 0,24, 0.00,60.00,Tuesday
143,57367258.30316002
192,0.0
2,18, 1,18, 0, 1, 0.00,60.00,Wednesday
143,64282893.68041988
192,0.0
2,18, 1,18, 0, 2, 0.00,60.00,Wednesday
143,73733299.24038775
192,0.0
2,18, 1,18, 0, 3, 0.00,60.00,Wednesday
143,83370734.48529531
192,0.0
2,18, 1,18, 0, 4, 0.00,60.00,Wednesday
143,89964295.93678793
192,0.0
2,18, 1,18, 0, 5, 0.00,60.00,Wednesday
143,83898617.25494045
192,0.0
2,18, 1,18, 0, 6, 0.00,60.00,Wednesday
143,96908372.72052492
192,0.0
2,18, 1,18, 0, 7, 0.00,60.00,Wednesday
143,121254545.50288993
192,0.0
2,18, 1,18, 0, 8, 0.00,60.00,Wednesday
143,130856801.49939382
192,0.0
2,18, 1,18, 0, 9, 0.00,60.00,Wednesday
143,126576059.99313164
192,0.0
2,18, 1,18, 0,10, 0.00,60.00,Wednesday
143,108913932.09789391
192,0.0
2,18, 1,18, 0,11, 0.00,60.00,Wednesday
143,64481548.02283714
192,0.0
2,18, 1,18, 0,12, 0.00,60.00,Wednesday
143,13976084.650839308
192,8862611.239121854
2,18, 1,18, 0,13, 0.00,60.00,Wednesday
143,0.0
192,102156137.05321902
2,18, 1,18, 0,14, 0.00,60.00,Wednesday
143,0.0
192,159594989.14035612
2,18, 1,18, 0,15, 0.00,60.00,Wednesday
143,0.0
192,171865033.71385592
2,18, 1,18, 0,16, 0.00,60.00,Wednesday
143,0.0
192,151746695.44659796
2,18, 1,18, 0,17, 0.00,60.00,Wednesday
143,0.0
192,108815366.97796692
2,18, 1,18, 0,18, 0.00,60.00,Wednesday
143,0.0
192,51375123.70471133
2,18, 1,18, 0,19, 0.00,60.00,Wednesday
143,13068322.356349882
192,3193556.93178079
2,18, 1,18, 0,20, 0.00,60.00,Wednesday
143,44228825.69475761
192,0.0