Program Version,EnergyPlus, Version 24.1.0-9d7789a3ac, YMD=2025.04.29 02:18
1,5,Environment Title[],Latitude[deg],Longitude[deg],Time Zone[],Elevation[m]
2,8,Day of Simulation[],Month[],Day of Month[],DST Indicator[1=yes 0=no],Hour[],StartMinute[],EndMinute[],DayType
3,5,Cumulative Day of Simulation[],Month[],Day of Month[],DST Indicator[1=yes 0=no],DayType  ! When Daily Meters Requested
4,2,Cumulative Days of Simulation[],Month[]  ! When Monthly Meters Requested
5,1,Cumulative Days of Simulation[] ! When Run Period Meters Requested
6,1,Calendar Year of Simulation[] ! When Annual Meters Requested
192,1,DistrictCooling:Facility [J] !Hourly
143,1,DistrictHeatingWater:Facility [J] !Hourly
End of Data Dictionary
1,RUN PERIOD 1,   1.37, 103.98,   8.00,  16.00
2,1, 1, 1, 0, 1, 0.00,60.00,Sunday
143,105982305.26010288
192,0.0
2,1, 1, 1, 0, 2, 0.00,60.00,Sunday
143,119820534.47759014
192,0.0
2,1, 1, 1, 0, 3, 0.00,60.00,Sunday
143,137458095.25728428
192,0.0
2,1, 1, 1, 0, 4, 0.00,60.00,Sunday
143,161098683.52032825
192,0.0
2,1, 1, 1, 0, 5, 0.00,60.00,Sunday
143,185368902.12992483
192,0.0
2,1, 1, 1, 0, 6, 0.00,60.00,Sunday
143,204747909.71158904
192,0.0
2,1, 1, 1, 0, 7, 0.00,60.00,Sunday
143,217147766.13899907
192,0.0
2,1, 1, 1, 0, 8, 0.00,60.00,Sunday
143,211784213.93486753
192,0.0
2,1, 1, 1, 0, 9, 0.00,60.00,Sunday
143,128415539.16530585
192,0.0
2,1, 1, 1, 0,10, 0.00,60.00,Sunday
143,18638896.899608843
192,22044524.891308606
2,1, 1, 1, 0,11, 0.00,60.00,Sunday
143,0.0
192,164314365.36801463
2,1, 1, 1, 0,12, 0.00,60.00,Sunday
143,0.0
192,299643200.95824325
2,1, 1, 1, 0,13, 0.00,60.00,Sunday
143,0.0
192,403342316.6148125
2,1, 1, 1, 0,14, 0.00,60.00,Sunday
143,0.0
192,474748557.2632677
2,1, 1, 1, 0,15, 0.00,60.00,Sunday
143,0.0
192,509362800.1931168
2,1, 1, 1, 0,16, 0.00,60.00,Sunday
143,0.0
192,494575217.40317625
2,1, 1, 1, 0,17, 0.00,60.00,Sunday
143,0.0
192,432397574.2852288
2,1, 1, 1, 0,18, 0.00,60.00,Sunday
143,0.0
192,307509006.3292775
2,1, 1, 1, 0,19, 0.00,60.00,Sunday
143,0.0
192,161455202.39048588
2,1, 1, 1, 0,20, 0.00,60.00,Sunday
143,0.0
192,64294733.2814693
2,1, 1, 1, 0,21, 0.00,60.00,Sunday
143,3126709.616002812
192,9791368.877189707
2,1, 1, 1, 0,22, 0.00,60.00,Sunday
143,38504534.8358775
192,0.0
2,1, 1, 1, 0,23, 0.00,60.00,Sunday
143,76322347.09427246
192,0.0
2,1, 1, 1, 0,24, 0.00,60.00,Sunday
143,93424555.1013501
192,0.0
2,2, 1, 2, 0, 1, 0.00,60.00,Monday
143,105374081.59300852
192,0.0
2,2, 1, 2, 0, 2, 0.00,60.00,Monday
143,120496761.4751817
192,0.0
2,2, 1, 2, 0, 3, 0.00,60.00,Monday
143,138008570.77211177
192,0.0
2,2, 1, 2, 0, 4, 0.00,60.00,Monday
143,154631612.69709182
192,0.0
2,2, 1, 2, 0, 5, 0.00,60.00,Monday
143,170983047.32609716
192,0.0
2,2, 1, 2, 0, 6, 0.00,60.00,Monday
143,180370582.02237228
192,0.0
2,2, 1, 2, 0, 7, 0.00,60.00,Monday
143,182464239.55476668
192,0.0
2,2, 1, 2, 0, 8, 0.00,60.00,Monday
143,175210297.9468094
192,0.0
2,2, 1, 2, 0, 9, 0.00,60.00,Monday
143,100403635.16636133
192,0.0
2,2, 1, 2, 0,10, 0.00,60.00,Monday
143,10766584.445211757
192,28695520.988533765
2,2, 1, 2, 0,11, 0.00,60.00,Monday
143,0.0
192,167991703.4138674
2,2, 1, 2, 0,12, 0.00,60.00,Monday
143,0.0
192,314193994.1444799
2,2, 1, 2, 0,13, 0.00,60.00,Monday
143,0.0
192,444634936.1136937
2,2, 1, 2, 0,14, 0.00,60.00,Monday
143,0.0
192,551871911.72963
2,2, 1, 2, 0,15, 0.00,60.00,Monday
143,0.0
192,581020840.9471542
2,2, 1, 2, 0,16, 0.00,60.00,Monday
143,0.0
192,543935704.1260178
2,2, 1, 2, 0,17, 0.00,60.00,Monday
143,0.0
192,455244426.7522894
2,2, 1, 2, 0,18, 0.00,60.00,Monday
143,1.7462298274040222e-8
192,320000765.3621776
2,2, 1, 2, 0,19, 0.00,60.00,Monday
143,0.0
192,174007115.99720734
2,2, 1, 2, 0,20, 0.00,60.00,Monday
143,0.0
192,79198114.78806151
2,2, 1, 2, 0,21, 0.00,60.00,Monday
143,0.0
192,27369329.956067413
2,2, 1, 2, 0,22, 0.00,60.00,Monday
143,6524168.161665926
192,1215773.8136636098
2,2, 1, 2, 0,23, 0.00,60.00,Monday
143,32453254.56902305
192,0.0
2,2, 1, 2, 0,24, 0.00,60.00,Monday
143,50031344.511865586
192,0.0
2,3, 1, 3, 0, 1, 0.00,60.00,Tuesday
143,63051600.2321843
192,0.0
2,3, 1, 3, 0, 2, 0.00,60.00,Tuesday
143,80794947.69764598
192,0.0
2,3, 1, 3, 0, 3, 0.00,60.00,Tuesday
143,96839619.63998342
192,0.0
2,3, 1, 3, 0, 4, 0.00,60.00,Tuesday
143,113229415.57267341
192,0.0
2,3, 1, 3, 0, 5, 0.00,60.00,Tuesday
143,130970721.48920524
192,0.0
2,3, 1, 3, 0, 6, 0.00,60.00,Tuesday
143,140300961.22957516
192,0.0
2,3, 1, 3, 0, 7, 0.00,60.00,Tuesday
143,139633684.08233973
192,0.0
2,3, 1, 3, 0, 8, 0.00,60.00,Tuesday
143,127461658.84053585
192,0.0
2,3, 1, 3, 0, 9, 0.00,60.00,Tuesday
143,49284509.64778353
192,0.0
2,3, 1, 3, 0,10, 0.00,60.00,Tuesday
143,0.0
192,117624786.5670701
2,3, 1, 3, 0,11, 0.00,60.00,Tuesday
143,0.0
192,384205202.7113067
2,3, 1, 3, 0,12, 0.00,60.00,Tuesday
143,0.0
192,681760481.207199
2,3, 1, 3, 0,13, 0.00,60.00,Tuesday
143,0.0
192,945773864.5560648
2,3, 1, 3, 0,14, 0.00,60.00,Tuesday
143,3.4924596548080444e-8
192,1148835505.083833
2,3, 1, 3, 0,15, 0.00,60.00,Tuesday
143,6.984919309616089e-8
192,1224414820.112976
2,3, 1, 3, 0,16, 0.00,60.00,Tuesday
143,3.4924596548080444e-8
192,1163622436.8653398
2,3, 1, 3, 0,17, 0.00,60.00,Tuesday
143,0.0
192,963053482.562483
2,3, 1, 3, 0,18, 0.00,60.00,Tuesday
143,0.0
192,674391327.747714
2,3, 1, 3, 0,19, 0.00,60.00,Tuesday
143,0.0
192,398609890.18067354
2,3, 1, 3, 0,20, 0.00,60.00,Tuesday
143,0.0
192,237033480.31847104
2,3, 1, 3, 0,21, 0.00,60.00,Tuesday
143,0.0
192,147263444.08794442
2,3, 1, 3, 0,22, 0.00,60.00,Tuesday
143,0.0
192,85656645.77776374
2,3, 1, 3, 0,23, 0.00,60.00,Tuesday
143,0.0
192,37972884.58915878
2,3, 1, 3, 0,24, 0.00,60.00,Tuesday
143,2746973.492933437
192,4817633.486634778
2,4, 1, 4, 0, 1, 0.00,60.00,Wednesday
143,23411145.7243646
192,0.0
2,4, 1, 4, 0, 2, 0.00,60.00,Wednesday
143,42358057.92626501
192,0.0
2,4, 1, 4, 0, 3, 0.00,60.00,Wednesday
143,52499524.17078638
192,0.0
2,4, 1, 4, 0, 4, 0.00,60.00,Wednesday
143,63353724.57567081
192,0.0
2,4, 1, 4, 0, 5, 0.00,60.00,Wednesday
143,78286103.21416378
192,0.0
2,4, 1, 4, 0, 6, 0.00,60.00,Wednesday
143,86806637.73881218
192,0.0
2,4, 1, 4, 0, 7, 0.00,60.00,Wednesday
143,91632753.80157012
192,0.0
2,4, 1, 4, 0, 8, 0.00,60.00,Wednesday
143,70378032.38998269
192,0.0
2,4, 1, 4, 0, 9, 0.00,60.00,Wednesday
143,40216776.22820414
192,0.0
2,4, 1, 4, 0,10, 0.00,60.00,Wednesday
143,1993515.0863026732
192,38355192.06036805
2,4, 1, 4, 0,11, 0.00,60.00,Wednesday
143,0.0
192,197572530.8561343
2,4, 1, 4, 0,12, 0.00,60.00,Wednesday
143,0.0
192,348589177.188153
2,4, 1, 4, 0,13, 0.00,60.00,Wednesday
143,1.7462298274040222e-8
192,468805457.9581794
2,4, 1, 4, 0,14, 0.00,60.00,Wednesday
143,0.0
192,564872155.3614562
2,4, 1, 4, 0,15, 0.00,60.00,Wednesday
143,3.4924596548080444e-8
192,589127671.382724
2,4, 1, 4, 0,16, 0.00,60.00,Wednesday
143,1.7462298274040222e-8
192,552254880.0269355
2,4, 1, 4, 0,17, 0.00,60.00,Wednesday
143,0.0
192,464631507.4248287
2,4, 1, 4, 0,18, 0.00,60.00,Wednesday
143,0.0
192,328105859.73140246
2,4, 1, 4, 0,19, 0.00,60.00,Wednesday
143,0.0
192,174869595.8728865
2,4, 1, 4, 0,20, 0.00,60.00,Wednesday
143,0.0
192,69846819.9332592
2,4, 1, 4, 0,21, 0.00,60.00,Wednesday
143,0.0
192,17265641.982369434
2,4, 1, 4, 0,22, 0.00,60.00,Wednesday
143,14034189.930807238
192,0.0
2,4, 1, 4, 0,23, 0.00,60.00,Wednesday
143,36673038.1225617
192,0.0
2,4, 1, 4, 0,24, 0.00,60.00,Wednesday
143,52735942.836972654
192,0.0
2,5, 1, 5, 0, 1, 0.00,60.00,Thursday
143,63143183.78992038
192,0.0
2,5, 1, 5, 0, 2, 0.00,60.00,Thursday
143,75379329.7978667
192,0.0
2,5, 1, 5, 0, 3, 0.00,60.00,Thursday
143,88999737.28296271
192,0.0
2,5, 1, 5, 0, 4, 0.00,60.00,Thursday
143,102456290.74342217
192,0.0
2,5, 1, 5, 0, 5, 0.00,60.00,Thursday
143,115407935.2356639
192,0.0
2,5, 1, 5, 0, 6, 0.00,60.00,Thursday
143,127833335.1234837
192,0.0
2,5, 1, 5, 0, 7, 0.00,60.00,Thursday
143,140419501.18882832
192,0.0
2,5, 1, 5, 0, 8, 0.00,60.00,Thursday
143,141550658.88161576
192,0.0
2,5, 1, 5, 0, 9, 0.00,60.00,Thursday
143,72417840.48721944
192,0.0
2,5, 1, 5, 0,10, 0.00,60.00,Thursday
143,2719788.3382407944
192,46259962.10203842
2,5, 1, 5, 0,11, 0.00,60.00,Thursday
143,0.0
192,191728537.81398028
2,5, 1, 5, 0,12, 0.00,60.00,Thursday
143,0.0
192,342410619.83403856
2,5, 1, 5, 0,13, 0.00,60.00,Thursday
143,0.0
192,468927963.9481039
2,5, 1, 5, 0,14, 0.00,60.00,Thursday
143,0.0
192,563861235.9318093
2,5, 1, 5, 0,15, 0.00,60.00,Thursday
143,0.0
192,527817466.2037375
2,5, 1, 5, 0,16, 0.00,60.00,Thursday
143,0.0
192,405596428.8339246
2,5, 1, 5, 0,17, 0.00,60.00,Thursday
143,0.0
192,270417914.6240377
2,5, 1, 5, 0,18, 0.00,60.00,Thursday
143,0.0
192,192466173.79832393
2,5, 1, 5, 0,19, 0.00,60.00,Thursday
143,0.0
192,108313840.525528
2,5, 1, 5, 0,20, 0.00,60.00,Thursday
143,0.0
192,30031885.750600792
2,5, 1, 5, 0,21, 0.00,60.00,Thursday
143,18506152.77809487
192,0.0
2,5, 1, 5, 0,22, 0.00,60.00,Thursday
143,46205249.38742997
192,0.0
2,5, 1, 5, 0,23, 0.00,60.00,Thursday
143,64407283.376177445
192,0.0
2,5, 1, 5, 0,24, 0.00,60.00,Thursday
143,77873846.26088844
192,0.0
2,6, 1, 6, 0, 1, 0.00,60.00,Friday
143,93614098.46867335
192,0.0
2,6, 1, 6, 0, 2, 0.00,60.00,Friday
143,112826802.8310402
192,0.0
2,6, 1, 6, 0, 3, 0.00,60.00,Friday
143,127584204.5823949
192,0.0
2,6, 1, 6, 0, 4, 0.00,60.00,Friday
143,143661256.30818442
192,0.0
2,6, 1, 6, 0, 5, 0.00,60.00,Friday
143,159129204.12757778
192,0.0
2,6, 1, 6, 0, 6, 0.00,60.00,Friday
143,171907365.0887011
192,0.0
2,6, 1, 6, 0, 7, 0.00,60.00,Friday
143,185943304.17080647
192,0.0
2,6, 1, 6, 0, 8, 0.00,60.00,Friday
143,188697763.58021057
192,0.0
2,6, 1, 6, 0, 9, 0.00,60.00,Friday
143,103913913.38625695
192,0.0
2,6, 1, 6, 0,10, 0.00,60.00,Friday
143,8458645.960082345
192,34654006.95930132
2,6, 1, 6, 0,11, 0.00,60.00,Friday
143,0.0
192,181320976.27944273
2,6, 1, 6, 0,12, 0.00,60.00,Friday
143,0.0
192,334333964.3693058
2,6, 1, 6, 0,13, 0.00,60.00,Friday
143,0.0
192,462456487.49677235
2,6, 1, 6, 0,14, 0.00,60.00,Friday
143,0.0
192,564903746.5974078
2,6, 1, 6, 0,15, 0.00,60.00,Friday
143,0.0
192,593622131.5698018
2,6, 1, 6, 0,16, 0.00,60.00,Friday
143,3.4924596548080444e-8
192,559293485.5743116
2,6, 1, 6, 0,17, 0.00,60.00,Friday
143,0.0
192,473960108.5644002
2,6, 1, 6, 0,18, 0.00,60.00,Friday
143,0.0
192,337984049.9041349
2,6, 1, 6, 0,19, 0.00,60.00,Friday
143,0.0
192,184476384.24231905
2,6, 1, 6, 0,20, 0.00,60.00,Friday
143,0.0
192,78259001.90492071
2,6, 1, 6, 0,21, 0.00,60.00,Friday
143,0.0
192,20783516.534667235
2,6, 1, 6, 0,22, 0.00,60.00,Friday
143,14999480.528398652
192,0.0
2,6, 1, 6, 0,23, 0.00,60.00,Friday
143,44160379.74735141
192,0.0
2,6, 1, 6, 0,24, 0.00,60.00,Friday
143,62057090.35676583
192,0.0
2,7, 1, 7, 0, 1, 0.00,60.00,Saturday
143,76624022.0262158
192,0.0
2,7, 1, 7, 0, 2, 0.00,60.00,Saturday
143,95902468.17545226
192,0.0
2,7, 1, 7, 0, 3, 0.00,60.00,Saturday
143,117364137.41985986
192,0.0
2,7, 1, 7, 0, 4, 0.00,60.00,Saturday
143,142084249.89801723
192,0.0
2,7, 1, 7, 0, 5, 0.00,60.00,Saturday
143,173347225.2089419
192,0.0
2,7, 1, 7, 0, 6, 0.00,60.00,Saturday
143,176809690.73532328
192,0.0
2,7, 1, 7, 0, 7, 0.00,60.00,Saturday
143,155171976.6373867
192,0.0
2,7, 1, 7, 0, 8, 0.00,60.00,Saturday
143,126955175.2951825
192,0.0
2,7, 1, 7, 0, 9, 0.00,60.00,Saturday
143,55384990.72743673
192,0.0
2,7, 1, 7, 0,10, 0.00,60.00,Saturday
143,1284903.9617664644
192,47917288.59221781
2,7, 1, 7, 0,11, 0.00,60.00,Saturday
143,0.0
192,186938806.05945337
2,7, 1, 7, 0,12, 0.00,60.00,Saturday
143,0.0
192,339751712.1742079
2,7, 1, 7, 0,13, 0.00,60.00,Saturday
143,0.0
192,477001641.70245904
2,7, 1, 7, 0,14, 0.00,60.00,Saturday
143,0.0
192,593210256.3892183
2,7, 1, 7, 0,15, 0.00,60.00,Saturday
143,0.0
192,626677023.1406782
2,7, 1, 7, 0,16, 0.00,60.00,Saturday
143,0.0
192,587547974.5405198
2,7, 1, 7, 0,17, 0.00,60.00,Saturday
143,1.7462298274040222e-8
192,496782762.79041946
2,7, 1, 7, 0,18, 0.00,60.00,Saturday
143,0.0
192,349917412.39584774
2,7, 1, 7, 0,19, 0.00,60.00,Saturday
143,0.0
192,191223843.9418217
2,7, 1, 7, 0,20, 0.00,60.00,Saturday
143,0.0
192,89191995.69253741
2,7, 1, 7, 0,21, 0.00,60.00,Saturday
143,0.0
192,31974300.67356415
2,7, 1, 7, 0,22, 0.00,60.00,Saturday
143,8760138.198356468
192,1542514.7623078446
2,7, 1, 7, 0,23, 0.00,60.00,Saturday
143,41967902.12083147
192,0.0
2,7, 1, 7, 0,24, 0.00,60.00,Saturday
143,65290429.867114395
192,0.0
2,8, 1, 8, 0, 1, 0.00,60.00,Sunday
143,79568364.2644226
192,0.0
2,8, 1, 8, 0, 2, 0.00,60.00,Sunday
143,96366029.91206351
192,0.0
2,8, 1, 8, 0, 3, 0.00,60.00,Sunday
143,114855307.8985773
192,0.0
2,8, 1, 8, 0, 4, 0.00,60.00,Sunday
143,133921631.81911625
192,0.0
2,8, 1, 8, 0, 5, 0.00,60.00,Sunday
143,154134081.8955044
192,0.0
2,8, 1, 8, 0, 6, 0.00,60.00,Sunday
143,167080219.36069453
192,0.0
2,8, 1, 8, 0, 7, 0.00,60.00,Sunday
143,171960681.7769283
192,0.0
2,8, 1, 8, 0, 8, 0.00,60.00,Sunday
143,164117990.18973404
192,0.0
2,8, 1, 8, 0, 9, 0.00,60.00,Sunday
143,76411584.99170662
192,0.0
2,8, 1, 8, 0,10, 0.00,60.00,Sunday
143,0.0
192,101571992.45647454
2,8, 1, 8, 0,11, 0.00,60.00,Sunday
143,0.0
192,371727113.964875
2,8, 1, 8, 0,12, 0.00,60.00,Sunday
143,0.0
192,669952194.484159
2,8, 1, 8, 0,13, 0.00,60.00,Sunday
143,0.0
192,931931681.6051524
2,8, 1, 8, 0,14, 0.00,60.00,Sunday
143,0.0
192,1137006295.5648408
2,8, 1, 8, 0,15, 0.00,60.00,Sunday
143,0.0
192,1255450361.0774243
2,8, 1, 8, 0,16, 0.00,60.00,Sunday
143,0.0
192,1251205319.265719
2,8, 1, 8, 0,17, 0.00,60.00,Sunday
143,3.4924596548080444e-8
192,1115014908.3401215
2,8, 1, 8, 0,18, 0.00,60.00,Sunday
143,0.0
192,842424345.5162002
2,8, 1, 8, 0,19, 0.00,60.00,Sunday
143,0.0
192,506406688.08862793
2,8, 1, 8, 0,20, 0.00,60.00,Sunday
143,0.0
192,292045985.590761
2,8, 1, 8, 0,21, 0.00,60.00,Sunday
143,0.0
192,184476852.25016457
2,8, 1, 8, 0,22, 0.00,60.00,Sunday
143,0.0
192,109237158.37189956
2,8, 1, 8, 0,23, 0.00,60.00,Sunday
143,0.0
192,47858279.83509097
2,8, 1, 8, 0,24, 0.00,60.00,Sunday
143,1939969.2507455118
192,6448515.923505742
2,9, 1, 9, 0, 1, 0.00,60.00,Monday
143,31627845.21362004
192,0.0
2,9, 1, 9, 0, 2, 0.00,60.00,Monday
143,66557950.24995651
192,0.0
2,9, 1, 9, 0, 3, 0.00,60.00,Monday
143,86396087.39242291
192,0.0
2,9, 1, 9, 0, 4, 0.00,60.00,Monday
143,97866901.72559595
192,0.0
2,9, 1, 9, 0, 5, 0.00,60.00,Monday
143,109931478.72715278
192,0.0
2,9, 1, 9, 0, 6, 0.00,60.00,Monday
143,120543747.76214275
192,0.0
2,9, 1, 9, 0, 7, 0.00,60.00,Monday
143,131681958.48011397
192,0.0
2,9, 1, 9, 0, 8, 0.00,60.00,Monday
143,131194067.21879348
192,0.0
2,9, 1, 9, 0, 9, 0.00,60.00,Monday
143,63740698.04742711
192,0.0
2,9, 1, 9, 0,10, 0.00,60.00,Monday
143,0.0
192,74219412.40930337
2,9, 1, 9, 0,11, 0.00,60.00,Monday
143,0.0
192,254958980.17476404
2,9, 1, 9, 0,12, 0.00,60.00,Monday
143,0.0
192,444727735.15438515
2,9, 1, 9, 0,13, 0.00,60.00,Monday
143,0.0
192,626495619.2983248
2,9, 1, 9, 0,14, 0.00,60.00,Monday
143,0.0
192,762795264.2113699
2,9, 1, 9, 0,15, 0.00,60.00,Monday
143,0.0
192,782387071.1128962
2,9, 1, 9, 0,16, 0.00,60.00,Monday
143,0.0
192,725254251.1625803
2,9, 1, 9, 0,17, 0.00,60.00,Monday
143,0.0
192,607290878.9539233
2,9, 1, 9, 0,18, 0.00,60.00,Monday
143,0.0
192,463947091.5519255
2,9, 1, 9, 0,19, 0.00,60.00,Monday
143,0.0
192,281345959.7081209
2,9, 1, 9, 0,20, 0.00,60.00,Monday
143,0.0
192,155513320.9151154
2,9, 1, 9, 0,21, 0.00,60.00,Monday
143,2.1827872842550278e-9
192,86103739.51039256
2,9, 1, 9, 0,22, 0.00,60.00,Monday
143,0.0
192,25616624.982997466
2,9, 1, 9, 0,23, 0.00,60.00,Monday
143,29583000.527483217
192,0.0
2,9, 1, 9, 0,24, 0.00,60.00,Monday
143,62178692.40282307
192,0.0
2,10, 1,10, 0, 1, 0.00,60.00,Tuesday
143,79511417.19237122
192,0.0
2,10, 1,10, 0, 2, 0.00,60.00,Tuesday
143,94562239.22914195
192,0.0
2,10, 1,10, 0, 3, 0.00,60.00,Tuesday
143,106029914.03364442
192,0.0
2,10, 1,10, 0, 4, 0.00,60.00,Tuesday
143,121257417.99383123
192,0.0
2,10, 1,10, 0, 5, 0.00,60.00,Tuesday
143,135563278.02080953
192,0.0
2,10, 1,10, 0, 6, 0.00,60.00,Tuesday
143,135002350.95250857
192,0.0
2,10, 1,10, 0, 7, 0.00,60.00,Tuesday
143,119822017.04572544
192,0.0
2,10, 1,10, 0, 8, 0.00,60.00,Tuesday
143,97430522.92313448
192,0.0
2,10, 1,10, 0, 9, 0.00,60.00,Tuesday
143,42840616.89812704
192,0.0
2,10, 1,10, 0,10, 0.00,60.00,Tuesday
143,422385.8303672634
192,31251171.78788703
2,10, 1,10, 0,11, 0.00,60.00,Tuesday
143,0.0
192,148947135.46272007
2,10, 1,10, 0,12, 0.00,60.00,Tuesday
143,0.0
192,293993997.01068616
2,10, 1,10, 0,13, 0.00,60.00,Tuesday
143,0.0
192,421983619.02204484
2,10, 1,10, 0,14, 0.00,60.00,Tuesday
143,0.0
192,521076770.63895154
2,10, 1,10, 0,15, 0.00,60.00,Tuesday
143,0.0
192,563562827.5379624
2,10, 1,10, 0,16, 0.00,60.00,Tuesday
143,0.0
192,539573388.247524
2,10, 1,10, 0,17, 0.00,60.00,Tuesday
143,0.0
192,459219283.426625
2,10, 1,10, 0,18, 0.00,60.00,Tuesday
143,0.0
192,328908305.1168585
2,10, 1,10, 0,19, 0.00,60.00,Tuesday
143,0.0
192,182502876.1093188
2,10, 1,10, 0,20, 0.00,60.00,Tuesday
143,0.0
192,83922162.16050135
2,10, 1,10, 0,21, 0.00,60.00,Tuesday
143,0.0
192,25349472.47768489
2,10, 1,10, 0,22, 0.00,60.00,Tuesday
143,21224752.29753256
192,0.0
2,10, 1,10, 0,23, 0.00,60.00,Tuesday
143,62049736.39511447
192,0.0
2,10, 1,10, 0,24, 0.00,60.00,Tuesday
143,79292690.53546506
192,0.0
2,11, 1,11, 0, 1, 0.00,60.00,Wednesday
143,85827584.12020138
192,0.0
2,11, 1,11, 0, 2, 0.00,60.00,Wednesday
143,96690259.3637838
192,0.0
2,11, 1,11, 0, 3, 0.00,60.00,Wednesday
143,104455561.06467596
192,0.0
2,11, 1,11, 0, 4, 0.00,60.00,Wednesday
143,110382949.36339355
192,0.0
2,11, 1,11, 0, 5, 0.00,60.00,Wednesday
143,115290167.92239223
192,0.0
2,11, 1,11, 0, 6, 0.00,60.00,Wednesday
143,108838924.63820653
192,0.0
2,11, 1,11, 0, 7, 0.00,60.00,Wednesday
143,97156838.68555605
192,0.0
2,11, 1,11, 0, 8, 0.00,60.00,Wednesday
143,75196535.20183653
192,0.0
2,11, 1,11, 0, 9, 0.00,60.00,Wednesday
143,19918978.89366075
192,808774.5575370274
2,11, 1,11, 0,10, 0.00,60.00,Wednesday
143,0.0
192,69708850.02935538
2,11, 1,11, 0,11, 0.00,60.00,Wednesday
143,0.0
192,207941936.74826413
2,11, 1,11, 0,12, 0.00,60.00,Wednesday
143,0.0
192,346659152.32258815
2,11, 1,11, 0,13, 0.00,60.00,Wednesday
143,0.0
192,457428336.95021355
2,11, 1,11, 0,14, 0.00,60.00,Wednesday
143,0.0
192,542959241.5149977
2,11, 1,11, 0,15, 0.00,60.00,Wednesday
143,0.0
192,561510041.6979903
2,11, 1,11, 0,16, 0.00,60.00,Wednesday
143,0.0
192,523952130.40621054
2,11, 1,11, 0,17, 0.00,60.00,Wednesday
143,0.0
192,379005640.13323694
2,11, 1,11, 0,18, 0.00,60.00,Wednesday
143,0.0
192,259402152.37896186
2,11, 1,11, 0,19, 0.00,60.00,Wednesday
143,0.0
192,139239954.5395595
2,11, 1,11, 0,20, 0.00,60.00,Wednesday
143,245619.7791648097
192,27251839.768292665
2,11, 1,11, 0,21, 0.00,60.00,Wednesday
143,28566540.84107223
192,0.0
2,11, 1,11, 0,22, 0.00,60.00,Wednesday
143,68073366.25731555
192,0.0
2,11, 1,11, 0,23, 0.00,60.00,Wednesday
143,99587836.38642244
192,0.0
2,11, 1,11, 0,24, 0.00,60.00,Wednesday
143,113610009.63014667
192,0.0
2,12, 1,12, 0, 1, 0.00,60.00,Thursday
143,126007028.78652121
192,0.0
2,12, 1,12, 0, 2, 0.00,60.00,Thursday
143,141785323.68593645
192,0.0
2,12, 1,12, 0, 3, 0.00,60.00,Thursday
143,157988180.07055056
192,0.0
2,12, 1,12, 0, 4, 0.00,60.00,Thursday
143,168791253.0625985
192,0.0
2,12, 1,12, 0, 5, 0.00,60.00,Thursday
143,176662197.60335597
192,0.0
2,12, 1,12, 0, 6, 0.00,60.00,Thursday
143,175420490.89323622
192,0.0
2,12, 1,12, 0, 7, 0.00,60.00,Thursday
143,155557327.79189956
192,0.0
2,12, 1,12, 0, 8, 0.00,60.00,Thursday
143,121888994.03106394
192,0.0
2,12, 1,12, 0, 9, 0.00,60.00,Thursday
143,51872375.56533265
192,0.0
2,12, 1,12, 0,10, 0.00,60.00,Thursday
143,1385382.70861865
192,48960029.7887336
2,12, 1,12, 0,11, 0.00,60.00,Thursday
143,0.0
192,189342772.11588877
2,12, 1,12, 0,12, 0.00,60.00,Thursday
143,0.0
192,336727201.82200855
2,12, 1,12, 0,13, 0.00,60.00,Thursday
143,0.0
192,461045558.63224566
2,12, 1,12, 0,14, 0.00,60.00,Thursday
143,0.0
192,559669654.1992316
2,12, 1,12, 0,15, 0.00,60.00,Thursday
143,0.0
192,590739736.2214401
2,12, 1,12, 0,16, 0.00,60.00,Thursday
143,0.0
192,565521668.6083533
2,12, 1,12, 0,17, 0.00,60.00,Thursday
143,0.0
192,497792751.13039625
2,12, 1,12, 0,18, 0.00,60.00,Thursday
143,0.0
192,407631809.68930864
2,12, 1,12, 0,19, 0.00,60.00,Thursday
143,0.0
192,242406434.6011665
2,12, 1,12, 0,20, 0.00,60.00,Thursday
143,0.0
192,118184467.0595323
2,12, 1,12, 0,21, 0.00,60.00,Thursday
143,0.0
192,51453692.33639566
2,12, 1,12, 0,22, 0.00,60.00,Thursday
143,4231334.889970534
192,6741525.465438285
2,12, 1,12, 0,23, 0.00,60.00,Thursday
143,41654735.7937918
192,0.0
2,12, 1,12, 0,24, 0.00,60.00,Thursday
143,72191785.90108962
192,0.0
2,13, 1,13, 0, 1, 0.00,60.00,Friday
143,89403950.18906397
192,0.0
2,13, 1,13, 0, 2, 0.00,60.00,Friday
143,109386936.45063178
192,0.0
2,13, 1,13, 0, 3, 0.00,60.00,Friday
143,132448357.36671486
192,0.0
2,13, 1,13, 0, 4, 0.00,60.00,Friday
143,155603359.0784511
192,0.0
2,13, 1,13, 0, 5, 0.00,60.00,Friday
143,177985153.1809951
192,0.0
2,13, 1,13, 0, 6, 0.00,60.00,Friday
143,170598067.04996514
192,0.0
2,13, 1,13, 0, 7, 0.00,60.00,Friday
143,144249091.09044403
192,0.0
2,13, 1,13, 0, 8, 0.00,60.00,Friday
143,107655051.41468525
192,0.0
2,13, 1,13, 0, 9, 0.00,60.00,Friday
143,31084934.835449465
192,378751.70354582544
2,13, 1,13, 0,10, 0.00,60.00,Friday
143,0.0
192,75964805.38147688
2,13, 1,13, 0,11, 0.00,60.00,Friday
143,0.0
192,206776155.45027736
2,13, 1,13, 0,12, 0.00,60.00,Friday
143,0.0
192,348324476.53068453
2,13, 1,13, 0,13, 0.00,60.00,Friday
143,0.0
192,469549476.8019939
2,13, 1,13, 0,14, 0.00,60.00,Friday
143,0.0
192,566046971.6693866
2,13, 1,13, 0,15, 0.00,60.00,Friday
143,0.0
192,594217158.1975818
2,13, 1,13, 0,16, 0.00,60.00,Friday
143,0.0
192,567867015.2518783
2,13, 1,13, 0,17, 0.00,60.00,Friday
143,0.0
192,491628622.0737468
2,13, 1,13, 0,18, 0.00,60.00,Friday
143,0.0
192,359950762.18066627
2,13, 1,13, 0,19, 0.00,60.00,Friday
143,0.0
192,207398020.96839783
2,13, 1,13, 0,20, 0.00,60.00,Friday
143,0.0
192,109374072.86222863
2,13, 1,13, 0,21, 0.00,60.00,Friday
143,0.0
192,50004264.81135445
2,13, 1,13, 0,22, 0.00,60.00,Friday
143,3819088.819226575
192,7079543.574935677
2,13, 1,13, 0,23, 0.00,60.00,Friday
143,38492914.99743098
192,0.0
2,13, 1,13, 0,24, 0.00,60.00,Friday
143,63528601.986272976
192,0.0
2,14, 1,14, 0, 1, 0.00,60.00,Saturday
143,73864494.64739697
192,0.0
2,14, 1,14, 0, 2, 0.00,60.00,Saturday
143,85567520.62777542
192,0.0
2,14, 1,14, 0, 3, 0.00,60.00,Saturday
143,97182312.74195698
192,0.0
2,14, 1,14, 0, 4, 0.00,60.00,Saturday
143,106478708.58669862
192,0.0
2,14, 1,14, 0, 5, 0.00,60.00,Saturday
143,116234974.12428972
192,0.0
2,14, 1,14, 0, 6, 0.00,60.00,Saturday
143,117052873.96019834
192,0.0
2,14, 1,14, 0, 7, 0.00,60.00,Saturday
143,111082211.64139882
192,0.0
2,14, 1,14, 0, 8, 0.00,60.00,Saturday
143,100398944.95865747
192,0.0
2,14, 1,14, 0, 9, 0.00,60.00,Saturday
143,69076109.84160052
192,0.0
2,14, 1,14, 0,10, 0.00,60.00,Saturday
143,31457209.27313506
192,0.0
2,14, 1,14, 0,11, 0.00,60.00,Saturday
143,9799332.843211198
192,228366.53200099382
2,14, 1,14, 0,12, 0.00,60.00,Saturday
143,0.0
192,45172946.584193364
2,14, 1,14, 0,13, 0.00,60.00,Saturday
143,0.0
192,137597887.65786597
2,14, 1,14, 0,14, 0.00,60.00,Saturday
143,0.0
192,230000900.08612874
2,14, 1,14, 0,15, 0.00,60.00,Saturday
143,0.0
192,309971701.5425801
2,14, 1,14, 0,16, 0.00,60.00,Saturday
143,0.0
192,347586916.67910933
2,14, 1,14, 0,17, 0.00,60.00,Saturday
143,0.0
192,323857571.8015841
2,14, 1,14, 0,18, 0.00,60.00,Saturday
143,0.0
192,230928103.4135001
2,14, 1,14, 0,19, 0.00,60.00,Saturday
143,0.0
192,106428214.80182503
2,14, 1,14, 0,20, 0.00,60.00,Saturday
143,233964.34979243216
192,22010981.38060332
2,14, 1,14, 0,21, 0.00,60.00,Saturday
143,24030700.149206724
192,0.0
2,14, 1,14, 0,22, 0.00,60.00,Saturday
143,51019033.67774853
192,0.0
2,14, 1,14, 0,23, 0.00,60.00,Saturday
143,69064896.17031254
192,0.0
2,14, 1,14, 0,24, 0.00,60.00,Saturday
143,82699401.93036091
192,0.0
2,15, 1,15, 0, 1, 0.00,60.00,Sunday
143,89129030.80910505
192,0.0
2,15, 1,15, 0, 2, 0.00,60.00,Sunday
143,94913330.37655182
192,0.0
2,15, 1,15, 0, 3, 0.00,60.00,Sunday
143,100940524.39381805
192,0.0
2,15, 1,15, 0, 4, 0.00,60.00,Sunday
143,104433764.27698801
192,0.0
2,15, 1,15, 0, 5, 0.00,60.00,Sunday
143,90803546.79734561
192,0.0
2,15, 1,15, 0, 6, 0.00,60.00,Sunday
143,89763410.92599995
192,0.0
2,15, 1,15, 0, 7, 0.00,60.00,Sunday
143,88339094.7551534
192,0.0
2,15, 1,15, 0, 8, 0.00,60.00,Sunday
143,68356284.6982545
192,0.0
2,15, 1,15, 0, 9, 0.00,60.00,Sunday
143,19140319.04800054
192,556024.8321452213
2,15, 1,15, 0,10, 0.00,60.00,Sunday
143,0.0
192,59701418.81636433
2,15, 1,15, 0,11, 0.00,60.00,Sunday
143,0.0
192,191421766.47355032
2,15, 1,15, 0,12, 0.00,60.00,Sunday
143,0.0
192,330246985.9303062
2,15, 1,15, 0,13, 0.00,60.00,Sunday
143,0.0
192,459959665.5757956
2,15, 1,15, 0,14, 0.00,60.00,Sunday
143,1.7462298274040222e-8
192,545278570.6489383
2,15, 1,15, 0,15, 0.00,60.00,Sunday
143,0.0
192,566870983.5165379
2,15, 1,15, 0,16, 0.00,60.00,Sunday
143,1.7462298274040222e-8
192,536947797.968657
2,15, 1,15, 0,17, 0.00,60.00,Sunday
143,0.0
192,455224209.1599869
2,15, 1,15, 0,18, 0.00,60.00,Sunday
143,8.731149137020111e-9
192,317802625.94042987
2,15, 1,15, 0,19, 0.00,60.00,Sunday
143,0.0
192,175671994.59516495
2,15, 1,15, 0,20, 0.00,60.00,Sunday
143,0.0
192,85117587.75789309
2,15, 1,15, 0,21, 0.00,60.00,Sunday
143,0.0
192,33055555.781500645
2,15, 1,15, 0,22, 0.00,60.00,Sunday
143,5687286.032087076
192,2242671.5233807936
2,15, 1,15, 0,23, 0.00,60.00,Sunday
143,31984153.778451215
192,0.0
2,15, 1,15, 0,24, 0.00,60.00,Sunday
143,49439203.98832917
192,0.0
2,16, 1,16, 0, 1, 0.00,60.00,Monday
143,59496816.73826076
192,0.0
2,16, 1,16, 0, 2, 0.00,60.00,Monday
143,70400426.97586566
192,0.0
2,16, 1,16, 0, 3, 0.00,60.00,Monday
143,80683908.3743884
192,0.0
2,16, 1,16, 0, 4, 0.00,60.00,Monday
143,91663729.03337489
192,0.0
2,16, 1,16, 0, 5, 0.00,60.00,Monday
143,101759638.85860655
192,0.0
2,16, 1,16, 0, 6, 0.00,60.00,Monday
143,106982860.92434964
192,0.0
2,16, 1,16, 0, 7, 0.00,60.00,Monday
143,107664956.22472225
192,0.0
2,16, 1,16, 0, 8, 0.00,60.00,Monday
143,104970601.73071939
192,0.0
2,16, 1,16, 0, 9, 0.00,60.00,Monday
143,86930931.69445339
192,0.0
2,16, 1,16, 0,10, 0.00,60.00,Monday
143,58760496.75074577
192,0.0
2,16, 1,16, 0,11, 0.00,60.00,Monday
143,33500035.59322846
192,0.0
2,16, 1,16, 0,12, 0.00,60.00,Monday
143,11678489.544025525
192,1625027.4475446558
2,16, 1,16, 0,13, 0.00,60.00,Monday
143,0.0
192,24874004.132114075
2,16, 1,16, 0,14, 0.00,60.00,Monday
143,0.0
192,46208588.543651074
2,16, 1,16, 0,15, 0.00,60.00,Monday
143,0.0
192,56759137.99312533
2,16, 1,16, 0,16, 0.00,60.00,Monday
143,0.0
192,52797005.02689226
2,16, 1,16, 0,17, 0.00,60.00,Monday
143,0.0
192,35759155.51762447
2,16, 1,16, 0,18, 0.00,60.00,Monday
143,998391.7331718372
192,11636350.074451542
2,16, 1,16, 0,19, 0.00,60.00,Monday
143,27027368.681093298
192,0.0
2,16, 1,16, 0,20, 0.00,60.00,Monday
143,56757866.47307867
192,0.0
2,16, 1,16, 0,21, 0.00,60.00,Monday
143,82989614.33123778
192,0.0
2,16, 1,16, 0,22, 0.00,60.00,Monday
143,108438217.04943457
192,0.0
2,16, 1,16, 0,23, 0.00,60.00,Monday
143,140966892.11658353
192,0.0
2,16, 1,16, 0,24, 0.00,60.00,Monday
143,160246002.79003233
192,0.0
2,17, 1,17, 0, 1, 0.00,60.00,Tuesday
143,164133976.7169369
192,0.0
2,17, 1,17, 0, 2, 0.00,60.00,Tuesday
143,165920022.20923987
192,0.0
2,17, 1,17, 0, 3, 0.00,60.00,Tuesday
143,165510155.21088332
192,0.0
2,17, 1,17, 0, 4, 0.00,60.00,Tuesday
143,165936054.40446442
192,0.0
2,17, 1,17, 0, 5, 0.00,60.00,Tuesday
143,166595603.78045553
192,0.0
2,17, 1,17, 0, 6, 0.00,60.00,Tuesday
143,154382440.38698658
192,0.0
2,17, 1,17, 0, 7, 0.00,60.00,Tuesday
143,134192877.6448784
192,0.0
2,17, 1,17, 0, 8, 0.00,60.00,Tuesday
143,110925556.14182338
192,0.0
2,17, 1,17, 0, 9, 0.00,60.00,Tuesday
143,68753186.95573406
192,0.0
2,17, 1,17, 0,10, 0.00,60.00,Tuesday
143,28863116.638394818
192,0.0
2,17, 1,17, 0,11, 0.00,60.00,Tuesday
143,13776460.218944494
192,0.0
2,17, 1,17, 0,12, 0.00,60.00,Tuesday
143,0.0
192,96699621.42720342
2,17, 1,17, 0,13, 0.00,60.00,Tuesday
143,0.0
192,311491847.0813337
2,17, 1,17, 0,14, 0.00,60.00,Tuesday
143,0.0
192,446161908.2396546
2,17, 1,17, 0,15, 0.00,60.00,Tuesday
143,0.0
192,499711201.87550324
2,17, 1,17, 0,16, 0.00,60.00,Tuesday
143,0.0
192,495212871.92559516
2,17, 1,17, 0,17, 0.00,60.00,Tuesday
143,0.0
192,437875136.61257625
2,17, 1,17, 0,18, 0.00,60.00,Tuesday
143,0.0
192,322083568.43404615
2,17, 1,17, 0,19, 0.00,60.00,Tuesday
143,0.0
192,179360929.2762453
2,17, 1,17, 0,20, 0.00,60.00,Tuesday
143,0.0
192,88326941.25908011
2,17, 1,17, 0,21, 0.00,60.00,Tuesday
143,0.0
192,35370653.6299469
2,17, 1,17, 0,22, 0.00,60.00,Tuesday
143,7341439.041987758
192,2422834.9363120785
2,17, 1,17, 0,23, 0.00,60.00,Tuesday
143,39993272.28269814
192,0.0
2,17, 1,17, 0,24, 0.00,60.00,Tuesday
143,57367896.12647251
192,0.0
2,18, 1,18, 0, 1, 0.00,60.00,Wednesday
143,64283578.505440734
192,0.0
2,18, 1,18, 0, 2, 0.00,60.00,Wednesday
143,73734020.6918781
192,0.0
2,18, 1,18, 0, 3, 0.00,60.00,Wednesday
143,83371486.70154387
192,0.0
2,18, 1,18, 0, 4, 0.00,60.00,Wednesday
143,89965067.16498712
192,0.0
2,18, 1,18, 0, 5, 0.00,60.00,Wednesday
143,83899425.33130166
192,0.0
2,18, 1,18, 0, 6, 0.00,60.00,Wednesday
143,96909202.23729527
192,0.0
2,18, 1,18, 0, 7, 0.00,60.00,Wednesday
143,121255371.6112596
192,0.0
2,18, 1,18, 0, 8, 0.00,60.00,Wednesday
143,130857636.28991877
192,0.0
2,18, 1,18, 0, 9, 0.00,60.00,Wednesday
143,126576920.28991878
192,0.0
2,18, 1,18, 0,10, 0.00,60.00,Wednesday
143,108914814.92707616
192,0.0
2,18, 1,18, 0,11, 0.00,60.00,Wednesday
143,64482745.74195771
192,0.0
2,18, 1,18, 0,12, 0.00,60.00,Wednesday
143,13976792.85716652
192,8862238.166437156
2,18, 1,18, 0,13, 0.00,60.00,Wednesday
143,0.0
192,102155250.49056114
2,18, 1,18, 0,14, 0.00,60.00,Wednesday
143,0.0
192,159593926.6563623
2,18, 1,18, 0,15, 0.00,60.00,Wednesday
143,0.0
192,171863820.34647453
2,18, 1,18, 0,16, 0.00,60.00,Wednesday
143,0.0
192,151745537.18014866
2,18, 1,18, 0,17, 0.00,60.00,Wednesday
143,0.0
192,108814329.11707743
2,18, 1,18, 0,18, 0.00,60.00,Wednesday
143,0.0
192,51374220.365208134
2,18, 1,18, 0,19, 0.00,60.00,Wednesday
143,13068876.73415956
192,3193264.313619823