Program Version,EnergyPlus, Version 24.1.0-9d7789a3ac, YMD=2025.04.30 08:57
1,5,Environment Title[],Latitude[deg],Longitude[deg],Time Zone[],Elevation[m]
2,8,Day of Simulation[],Month[],Day of Month[],DST Indicator[1=yes 0=no],Hour[],StartMinute[],EndMinute[],DayType
3,5,Cumulative Day of Simulation[],Month[],Day of Month[],DST Indicator[1=yes 0=no],DayType  ! When Daily Report Variables Requested
4,2,Cumulative Days of Simulation[],Month[]  ! When Monthly Report Variables Requested
5,1,Cumulative Days of Simulation[] ! When Run Period Report Variables Requested
6,1,Calendar Year of Simulation[] ! When Annual Report Variables Requested
192,1,DistrictCooling:Facility [J] !Hourly
143,1,DistrictHeatingWater:Facility [J] !Hourly
End of Data Dictionary
1,RUN PERIOD 1,  59.90,  10.62,   1.00,  17.00
2,1, 1, 1, 0, 1, 0.00,60.00,Sunday
143,827798051.1880307
192,0.0
2,1, 1, 1, 0, 2, 0.00,60.00,Sunday
143,899977976.739635
192,0.0
2,1, 1, 1, 0, 3, 0.00,60.00,Sunday
143,858796198.5954099
192,0.0
2,1, 1, 1, 0, 4, 0.00,60.00,Sunday
143,825390783.0271167
192,0.0
2,1, 1, 1, 0, 5, 0.00,60.00,Sunday
143,803143941.5094306
192,0.0
2,1, 1, 1, 0, 6, 0.00,60.00,Sunday
143,790191401.0084782
192,0.0
2,1, 1, 1, 0, 7, 0.00,60.00,Sunday
143,786436922.6228163
192,0.0
2,1, 1, 1, 0, 8, 0.00,60.00,Sunday
143,783331097.264876
192,0.0
2,1, 1, 1, 0, 9, 0.00,60.00,Sunday
143,775219602.2909904
192,0.0
2,1, 1, 1, 0,10, 0.00,60.00,Sunday
143,1095230849.9683
192,0.0
2,1, 1, 1, 0,11, 0.00,60.00,Sunday
143,997518347.4379898
192,0.0
2,1, 1, 1, 0,12, 0.00,60.00,Sunday
143,748673736.992322
192,0.0
2,1, 1, 1, 0,13, 0.00,60.00,Sunday
143,735706498.8659905
192,0.0
2,1, 1, 1, 0,14, 0.00,60.00,Sunday
143,732880783.470346
192,0.0
2,1, 1, 1, 0,15, 0.00,60.00,Sunday
143,735786787.5135653
192,0.0
2,1, 1, 1, 0,16, 0.00,60.00,Sunday
143,738857123.0736791
192,0.0
2,1, 1, 1, 0,17, 0.00,60.00,Sunday
143,739305466.1106787
192,0.0
2,1, 1, 1, 0,18, 0.00,60.00,Sunday
143,737180622.3519115
192,0.0
2,1, 1, 1, 0,19, 0.00,60.00,Sunday
143,733910863.4469123
192,0.0
2,1, 1, 1, 0,20, 0.00,60.00,Sunday
143,729444140.7655752
192,0.0
2,1, 1, 1, 0,21, 0.00,60.00,Sunday
143,724001343.0738102
192,0.0
2,1, 1, 1, 0,22, 0.00,60.00,Sunday
143,718210201.7350025
192,0.0
2,1, 1, 1, 0,23, 0.00,60.00,Sunday
143,711344695.7323291
192,0.0
2,1, 1, 1, 0,24, 0.00,60.00,Sunday
143,704227118.6971793
192,0.0
2,2, 1, 2, 0, 1, 0.00,60.00,Monday
143,697410889.8018911
192,0.0
2,2, 1, 2, 0, 2, 0.00,60.00,Monday
143,688018525.9700407
192,0.0
2,2, 1, 2, 0, 3, 0.00,60.00,Monday
143,688105551.2156346
192,0.0
2,2, 1, 2, 0, 4, 0.00,60.00,Monday
143,686063783.7086414
192,0.0
2,2, 1, 2, 0, 5, 0.00,60.00,Monday
143,688889565.9986584
192,0.0
2,2, 1, 2, 0, 6, 0.00,60.00,Monday
143,693442149.3691891
192,0.0
2,2, 1, 2, 0, 7, 0.00,60.00,Monday
143,696576225.1000656
192,0.0
2,2, 1, 2, 0, 8, 0.00,60.00,Monday
143,701535363.8941096
192,0.0
2,2, 1, 2, 0, 9, 0.00,60.00,Monday
143,706952146.6273297
192,0.0
2,2, 1, 2, 0,10, 0.00,60.00,Monday
143,710413444.0148084
192,0.0
2,2, 1, 2, 0,11, 0.00,60.00,Monday
143,706728638.8990582
192,0.0
2,2, 1, 2, 0,12, 0.00,60.00,Monday
143,698140656.3131917
192,0.0
2,2, 1, 2, 0,13, 0.00,60.00,Monday
143,691799125.7060491
192,0.0
2,2, 1, 2, 0,14, 0.00,60.00,Monday
143,683212471.8307445
192,0.0
2,2, 1, 2, 0,15, 0.00,60.00,Monday
143,669227663.9547887
192,0.0
2,2, 1, 2, 0,16, 0.00,60.00,Monday
143,654245116.9366639
192,0.0
2,2, 1, 2, 0,17, 0.00,60.00,Monday
143,648210113.9744065
192,0.0
2,2, 1, 2, 0,18, 0.00,60.00,Monday
143,650486825.551993
192,0.0
2,2, 1, 2, 0,19, 0.00,60.00,Monday
143,653035110.4017329
192,0.0
2,2, 1, 2, 0,20, 0.00,60.00,Monday
143,660921891.6303984
192,0.0
2,2, 1, 2, 0,21, 0.00,60.00,Monday
143,664914216.3574252
192,0.0
2,2, 1, 2, 0,22, 0.00,60.00,Monday
143,667230834.1997789
192,0.0
2,2, 1, 2, 0,23, 0.00,60.00,Monday
143,697354602.4249272
192,0.0
2,2, 1, 2, 0,24, 0.00,60.00,Monday
143,744945995.3865886
192,0.0
2,3, 1, 3, 0, 1, 0.00,60.00,Tuesday
143,790152297.3750039
192,0.0
2,3, 1, 3, 0, 2, 0.00,60.00,Tuesday
143,799094012.5375559
192,0.0
2,3, 1, 3, 0, 3, 0.00,60.00,Tuesday
143,777117191.0021663
192,0.0
2,3, 1, 3, 0, 4, 0.00,60.00,Tuesday
143,748961369.897196
192,0.0
2,3, 1, 3, 0, 5, 0.00,60.00,Tuesday
143,738816256.2851756
192,0.0
2,3, 1, 3, 0, 6, 0.00,60.00,Tuesday
143,741608955.4113463
192,0.0
2,3, 1, 3, 0, 7, 0.00,60.00,Tuesday
143,744550993.7683699
192,0.0
2,3, 1, 3, 0, 8, 0.00,60.00,Tuesday
143,747254954.5434717
192,0.0
2,3, 1, 3, 0, 9, 0.00,60.00,Tuesday
143,749188442.4787623
192,0.0
2,3, 1, 3, 0,10, 0.00,60.00,Tuesday
143,750520839.8466356
192,0.0
2,3, 1, 3, 0,11, 0.00,60.00,Tuesday
143,724567480.7649336
192,0.0
2,3, 1, 3, 0,12, 0.00,60.00,Tuesday
143,689460537.2435601
192,0.0
2,3, 1, 3, 0,13, 0.00,60.00,Tuesday
143,660925756.1426778
192,0.0
2,3, 1, 3, 0,14, 0.00,60.00,Tuesday
143,657664452.3660544
192,0.0
2,3, 1, 3, 0,15, 0.00,60.00,Tuesday
143,679766385.9308013
192,0.0
2,3, 1, 3, 0,16, 0.00,60.00,Tuesday
143,703791441.9999491
192,0.0
2,3, 1, 3, 0,17, 0.00,60.00,Tuesday
143,713753709.3384392
192,0.0
2,3, 1, 3, 0,18, 0.00,60.00,Tuesday
143,722922780.3476642
192,0.0
2,3, 1, 3, 0,19, 0.00,60.00,Tuesday
143,729846866.3927959
192,0.0
2,3, 1, 3, 0,20, 0.00,60.00,Tuesday
143,742408128.8582065
192,0.0
2,3, 1, 3, 0,21, 0.00,60.00,Tuesday
143,762328682.2788584
192,0.0
2,3, 1, 3, 0,22, 0.00,60.00,Tuesday
143,784340303.6009339
192,0.0
2,3, 1, 3, 0,23, 0.00,60.00,Tuesday
143,803383263.985282
192,0.0
2,3, 1, 3, 0,24, 0.00,60.00,Tuesday
143,819272219.2340919
192,0.0
2,4, 1, 4, 0, 1, 0.00,60.00,Wednesday
143,836332819.8351209
192,0.0
2,4, 1, 4, 0, 2, 0.00,60.00,Wednesday
143,833075067.4669629
192,0.0
2,4, 1, 4, 0, 3, 0.00,60.00,Wednesday
143,814367822.5470824
192,0.0
2,4, 1, 4, 0, 4, 0.00,60.00,Wednesday
143,798308359.2885884
192,0.0
2,4, 1, 4, 0, 5, 0.00,60.00,Wednesday
143,781539216.6084228
192,0.0
2,4, 1, 4, 0, 6, 0.00,60.00,Wednesday
143,761145142.6611543
192,0.0
2,4, 1, 4, 0, 7, 0.00,60.00,Wednesday
143,739765501.0353125
192,0.0
2,4, 1, 4, 0, 8, 0.00,60.00,Wednesday
143,733329030.6925229
192,0.0
2,4, 1, 4, 0, 9, 0.00,60.00,Wednesday
143,746222624.0930537
192,0.0
2,4, 1, 4, 0,10, 0.00,60.00,Wednesday
143,744589764.8119351
192,0.0
2,4, 1, 4, 0,11, 0.00,60.00,Wednesday
143,719743615.926696
192,0.0
2,4, 1, 4, 0,12, 0.00,60.00,Wednesday
143,679463841.3589368
192,0.0
2,4, 1, 4, 0,13, 0.00,60.00,Wednesday
143,652758433.6100148
192,0.0
2,4, 1, 4, 0,14, 0.00,60.00,Wednesday
143,645315720.0141537
192,0.0
2,4, 1, 4, 0,15, 0.00,60.00,Wednesday
143,650365581.5970134
192,0.0
2,4, 1, 4, 0,16, 0.00,60.00,Wednesday
143,662430030.7214916
192,0.0
2,4, 1, 4, 0,17, 0.00,60.00,Wednesday
143,667225388.8422385
192,0.0
2,4, 1, 4, 0,18, 0.00,60.00,Wednesday
143,666500870.0469581
192,0.0
2,4, 1, 4, 0,19, 0.00,60.00,Wednesday
143,667390064.2941887
192,0.0
2,4, 1, 4, 0,20, 0.00,60.00,Wednesday
143,667558176.0373582
192,0.0
2,4, 1, 4, 0,21, 0.00,60.00,Wednesday
143,667339584.1554278
192,0.0
2,4, 1, 4, 0,22, 0.00,60.00,Wednesday
143,667021597.9495484
192,0.0
2,4, 1, 4, 0,23, 0.00,60.00,Wednesday
143,671942615.3321552
192,0.0
2,4, 1, 4, 0,24, 0.00,60.00,Wednesday
143,682567280.0855836
192,0.0
2,5, 1, 5, 0, 1, 0.00,60.00,Thursday
143,697238825.6178873
192,0.0
2,5, 1, 5, 0, 2, 0.00,60.00,Thursday
143,705379008.6640625
192,0.0
2,5, 1, 5, 0, 3, 0.00,60.00,Thursday
143,706553619.70004
192,0.0
2,5, 1, 5, 0, 4, 0.00,60.00,Thursday
143,710552801.1177305
192,0.0
2,5, 1, 5, 0, 5, 0.00,60.00,Thursday
143,708093467.3266923
192,0.0
2,5, 1, 5, 0, 6, 0.00,60.00,Thursday
143,699780217.4890194
192,0.0
2,5, 1, 5, 0, 7, 0.00,60.00,Thursday
143,692183642.8359679
192,0.0
2,5, 1, 5, 0, 8, 0.00,60.00,Thursday
143,693131367.4131621
192,0.0
2,5, 1, 5, 0, 9, 0.00,60.00,Thursday
143,699207269.3629699
192,0.0
2,5, 1, 5, 0,10, 0.00,60.00,Thursday
143,693104106.3372655
192,0.0
2,5, 1, 5, 0,11, 0.00,60.00,Thursday
143,671846675.3971106
192,0.0
2,5, 1, 5, 0,12, 0.00,60.00,Thursday
143,650905417.4682473
192,0.0
2,5, 1, 5, 0,13, 0.00,60.00,Thursday
143,636339117.7769777
192,0.0
2,5, 1, 5, 0,14, 0.00,60.00,Thursday
143,643505592.0119232
192,0.0
2,5, 1, 5, 0,15, 0.00,60.00,Thursday
143,663975217.6272373
192,0.0
2,5, 1, 5, 0,16, 0.00,60.00,Thursday
143,683320053.8324959
192,0.0
2,5, 1, 5, 0,17, 0.00,60.00,Thursday
143,686449594.1962707
192,0.0
2,5, 1, 5, 0,18, 0.00,60.00,Thursday
143,676788768.4228189
192,0.0
2,5, 1, 5, 0,19, 0.00,60.00,Thursday
143,811265025.6468894
192,0.0
2,5, 1, 5, 0,20, 0.00,60.00,Thursday
143,780758925.0310104
192,0.0
2,5, 1, 5, 0,21, 0.00,60.00,Thursday
143,673708741.7440231
192,0.0
2,5, 1, 5, 0,22, 0.00,60.00,Thursday
143,687121466.7538055
192,0.0
2,5, 1, 5, 0,23, 0.00,60.00,Thursday
143,688545247.7892418
192,0.0
2,5, 1, 5, 0,24, 0.00,60.00,Thursday
143,685416420.3342069
192,0.0
2,6, 1, 6, 0, 1, 0.00,60.00,Friday
143,680632560.2496486
192,0.0
2,6, 1, 6, 0, 2, 0.00,60.00,Friday
143,672943519.821826
192,0.0
2,6, 1, 6, 0, 3, 0.00,60.00,Friday
143,662184007.3895253
192,0.0
2,6, 1, 6, 0, 4, 0.00,60.00,Friday
143,650739813.3997636
192,0.0
2,6, 1, 6, 0, 5, 0.00,60.00,Friday
143,652369444.3797594
192,0.0
2,6, 1, 6, 0, 6, 0.00,60.00,Friday
143,659473302.3296113
192,0.0
2,6, 1, 6, 0, 7, 0.00,60.00,Friday
143,664605462.2651563
192,0.0
2,6, 1, 6, 0, 8, 0.00,60.00,Friday
143,665192574.6264882
192,0.0
2,6, 1, 6, 0, 9, 0.00,60.00,Friday
143,659817509.0472654
192,0.0
2,6, 1, 6, 0,10, 0.00,60.00,Friday
143,653216753.1175752
192,0.0
2,6, 1, 6, 0,11, 0.00,60.00,Friday
143,646465319.3455838
192,0.0
2,6, 1, 6, 0,12, 0.00,60.00,Friday
143,650474365.751069
192,0.0
2,6, 1, 6, 0,13, 0.00,60.00,Friday
143,824216815.7207328
192,0.0
2,6, 1, 6, 0,14, 0.00,60.00,Friday
143,789051218.4118054
192,0.0
2,6, 1, 6, 0,15, 0.00,60.00,Friday
143,658776524.9046892
192,0.0
2,6, 1, 6, 0,16, 0.00,60.00,Friday
143,830865491.3773233
192,0.0
2,6, 1, 6, 0,17, 0.00,60.00,Friday
143,790820845.7174748
192,0.0
2,6, 1, 6, 0,18, 0.00,60.00,Friday
143,645560069.2911685
192,0.0
2,6, 1, 6, 0,19, 0.00,60.00,Friday
143,838474617.327862
192,0.0
2,6, 1, 6, 0,20, 0.00,60.00,Friday
143,791667807.6865296
192,0.0
2,6, 1, 6, 0,21, 0.00,60.00,Friday
143,640929505.4282031
192,0.0
2,6, 1, 6, 0,22, 0.00,60.00,Friday
143,850400030.2830756
192,0.0
2,6, 1, 6, 0,23, 0.00,60.00,Friday
143,812669967.0661355
192,0.0
2,6, 1, 6, 0,24, 0.00,60.00,Friday
143,674933211.6844273
192,0.0
2,7, 1, 7, 0, 1, 0.00,60.00,Saturday
143,688943913.2011166
192,0.0
2,7, 1, 7, 0, 2, 0.00,60.00,Saturday
143,693237779.011089
192,0.0
2,7, 1, 7, 0, 3, 0.00,60.00,Saturday
143,690239980.8394221
192,0.0
2,7, 1, 7, 0, 4, 0.00,60.00,Saturday
143,688945121.5728196
192,0.0
2,7, 1, 7, 0, 5, 0.00,60.00,Saturday
143,687339511.0058992
192,0.0
2,7, 1, 7, 0, 6, 0.00,60.00,Saturday
143,686527028.5352004
192,0.0
2,7, 1, 7, 0, 7, 0.00,60.00,Saturday
143,688420226.0772349
192,0.0
2,7, 1, 7, 0, 8, 0.00,60.00,Saturday
143,690607752.821757
192,0.0
2,7, 1, 7, 0, 9, 0.00,60.00,Saturday
143,697211647.2968066
192,0.0
2,7, 1, 7, 0,10, 0.00,60.00,Saturday
143,700801052.9977088
192,0.0
2,7, 1, 7, 0,11, 0.00,60.00,Saturday
143,679105218.6776761
192,0.0
2,7, 1, 7, 0,12, 0.00,60.00,Saturday
143,657755235.7399791
192,0.0
2,7, 1, 7, 0,13, 0.00,60.00,Saturday
143,649707220.2036698
192,0.0
2,7, 1, 7, 0,14, 0.00,60.00,Saturday
143,656027654.7799399
192,0.0
2,7, 1, 7, 0,15, 0.00,60.00,Saturday
143,670301485.0830929
192,0.0
2,7, 1, 7, 0,16, 0.00,60.00,Saturday
143,684840692.859532
192,0.0
2,7, 1, 7, 0,17, 0.00,60.00,Saturday
143,693761462.8665607
192,0.0
2,7, 1, 7, 0,18, 0.00,60.00,Saturday
143,692575718.0856131
192,0.0
2,7, 1, 7, 0,19, 0.00,60.00,Saturday
143,688603716.771962
192,0.0
2,7, 1, 7, 0,20, 0.00,60.00,Saturday
143,684280017.4519762
192,0.0
2,7, 1, 7, 0,21, 0.00,60.00,Saturday
143,674818760.9709163
192,0.0
2,7, 1, 7, 0,22, 0.00,60.00,Saturday
143,667935866.8609767
192,0.0
2,7, 1, 7, 0,23, 0.00,60.00,Saturday
143,667451652.4124156
192,0.0
2,7, 1, 7, 0,24, 0.00,60.00,Saturday
143,669908800.6983585
192,0.0
2,8, 1, 8, 0, 1, 0.00,60.00,Sunday
143,673001651.7377014
192,0.0
2,8, 1, 8, 0, 2, 0.00,60.00,Sunday
143,675648018.6378977
192,0.0
2,8, 1, 8, 0, 3, 0.00,60.00,Sunday
143,675808193.8696276
192,0.0
2,8, 1, 8, 0, 4, 0.00,60.00,Sunday
143,676815610.6890192
192,0.0
2,8, 1, 8, 0, 5, 0.00,60.00,Sunday
143,680166771.1104501
192,0.0
2,8, 1, 8, 0, 6, 0.00,60.00,Sunday
143,683695964.6494659
192,0.0
2,8, 1, 8, 0, 7, 0.00,60.00,Sunday
143,687470675.2707022
192,0.0
2,8, 1, 8, 0, 8, 0.00,60.00,Sunday
143,697535956.318325
192,0.0
2,8, 1, 8, 0, 9, 0.00,60.00,Sunday
143,712295080.8651006
192,0.0
2,8, 1, 8, 0,10, 0.00,60.00,Sunday
143,725738035.1591476
192,0.0
2,8, 1, 8, 0,11, 0.00,60.00,Sunday
143,716919901.0633554
192,0.0
2,8, 1, 8, 0,12, 0.00,60.00,Sunday
143,693224069.8422663
192,0.0
2,8, 1, 8, 0,13, 0.00,60.00,Sunday
143,672226774.1875186
192,0.0
2,8, 1, 8, 0,14, 0.00,60.00,Sunday
143,674820975.8093263
192,0.0
2,8, 1, 8, 0,15, 0.00,60.00,Sunday
143,694929798.9955907
192,0.0
2,8, 1, 8, 0,16, 0.00,60.00,Sunday
143,717776010.7142056
192,0.0
2,8, 1, 8, 0,17, 0.00,60.00,Sunday
143,732332687.2941464
192,0.0
2,8, 1, 8, 0,18, 0.00,60.00,Sunday
143,743033204.3032569
192,0.0
2,8, 1, 8, 0,19, 0.00,60.00,Sunday
143,750120439.4483838
192,0.0
2,8, 1, 8, 0,20, 0.00,60.00,Sunday
143,757632658.2997166
192,0.0
2,8, 1, 8, 0,21, 0.00,60.00,Sunday
143,766585673.8903089
192,0.0
2,8, 1, 8, 0,22, 0.00,60.00,Sunday
143,776936656.4267647
192,0.0
2,8, 1, 8, 0,23, 0.00,60.00,Sunday
143,789435133.4219437
192,0.0
2,8, 1, 8, 0,24, 0.00,60.00,Sunday
143,802612514.7383251
192,0.0
2,9, 1, 9, 0, 1, 0.00,60.00,Monday
143,814508516.3503938
192,0.0
2,9, 1, 9, 0, 2, 0.00,60.00,Monday
143,818454740.5820887
192,0.0
2,9, 1, 9, 0, 3, 0.00,60.00,Monday
143,824065754.9383702
192,0.0
2,9, 1, 9, 0, 4, 0.00,60.00,Monday
143,829128235.03985
192,0.0
2,9, 1, 9, 0, 5, 0.00,60.00,Monday
143,832820116.8716803
192,0.0
2,9, 1, 9, 0, 6, 0.00,60.00,Monday
143,836450946.4325769
192,0.0
2,9, 1, 9, 0, 7, 0.00,60.00,Monday
143,835256665.0144299
192,0.0
2,9, 1, 9, 0, 8, 0.00,60.00,Monday
143,836186273.0702966
192,0.0
2,9, 1, 9, 0, 9, 0.00,60.00,Monday
143,835038805.4020977
192,0.0
2,9, 1, 9, 0,10, 0.00,60.00,Monday
143,832917074.5653336
192,0.0
2,9, 1, 9, 0,11, 0.00,60.00,Monday
143,806324395.5668117
192,0.0
2,9, 1, 9, 0,12, 0.00,60.00,Monday
143,758102811.3505826
192,0.0
2,9, 1, 9, 0,13, 0.00,60.00,Monday
143,703252383.6847316
192,0.0
2,9, 1, 9, 0,14, 0.00,60.00,Monday
143,684912292.2775286
192,0.0
2,9, 1, 9, 0,15, 0.00,60.00,Monday
143,705307683.8697282
192,0.0
2,9, 1, 9, 0,16, 0.00,60.00,Monday
143,733001825.5619895
192,0.0
2,9, 1, 9, 0,17, 0.00,60.00,Monday
143,742388659.9759704
192,0.0
2,9, 1, 9, 0,18, 0.00,60.00,Monday
143,737913924.7889477
192,0.0
2,9, 1, 9, 0,19, 0.00,60.00,Monday
143,732791032.3352088
192,0.0
2,9, 1, 9, 0,20, 0.00,60.00,Monday
143,753900912.4160645
192,0.0
2,9, 1, 9, 0,21, 0.00,60.00,Monday
143,786081676.5112439
192,0.0
2,9, 1, 9, 0,22, 0.00,60.00,Monday
143,815342335.8123264
192,0.0
2,9, 1, 9, 0,23, 0.00,60.00,Monday
143,841938369.9998109
192,0.0
2,9, 1, 9, 0,24, 0.00,60.00,Monday
143,870575180.5182607
192,0.0
2,10, 1,10, 0, 1, 0.00,60.00,Tuesday
143,897378980.1283648
192,0.0
2,10, 1,10, 0, 2, 0.00,60.00,Tuesday
143,901535170.575419
192,0.0
2,10, 1,10, 0, 3, 0.00,60.00,Tuesday
143,887667734.0354967
192,0.0
2,10, 1,10, 0, 4, 0.00,60.00,Tuesday
143,874294184.9710008
192,0.0
2,10, 1,10, 0, 5, 0.00,60.00,Tuesday
143,862079425.9190366
192,0.0
2,10, 1,10, 0, 6, 0.00,60.00,Tuesday
143,849732171.6091083
192,0.0
2,10, 1,10, 0, 7, 0.00,60.00,Tuesday
143,830711869.1821685
192,0.0
2,10, 1,10, 0, 8, 0.00,60.00,Tuesday
143,826666567.8801299
192,0.0
2,10, 1,10, 0, 9, 0.00,60.00,Tuesday
143,832123067.0629815
192,0.0
2,10, 1,10, 0,10, 0.00,60.00,Tuesday
143,835194188.5987716
192,0.0
2,10, 1,10, 0,11, 0.00,60.00,Tuesday
143,825275997.0170949
192,0.0
2,10, 1,10, 0,12, 0.00,60.00,Tuesday
143,806010296.3308436
192,0.0
2,10, 1,10, 0,13, 0.00,60.00,Tuesday
143,789620386.629147
192,0.0
2,10, 1,10, 0,14, 0.00,60.00,Tuesday
143,781339216.5257037
192,0.0
2,10, 1,10, 0,15, 0.00,60.00,Tuesday
143,780507920.6906484
192,0.0
2,10, 1,10, 0,16, 0.00,60.00,Tuesday
143,778410783.8351717
192,0.0
2,10, 1,10, 0,17, 0.00,60.00,Tuesday
143,781802229.7734734
192,0.0
2,10, 1,10, 0,18, 0.00,60.00,Tuesday
143,794104158.2929873
192,0.0
2,10, 1,10, 0,19, 0.00,60.00,Tuesday
143,808859867.9837198
192,0.0
2,10, 1,10, 0,20, 0.00,60.00,Tuesday
143,821830285.6333086
192,0.0
2,10, 1,10, 0,21, 0.00,60.00,Tuesday
143,831345505.7234068
192,0.0
2,10, 1,10, 0,22, 0.00,60.00,Tuesday
143,842224553.1888528
192,0.0
2,10, 1,10, 0,23, 0.00,60.00,Tuesday
143,860996985.3544209
192,0.0
2,10, 1,10, 0,24, 0.00,60.00,Tuesday
143,886263344.039557
192,0.0
2,11, 1,11, 0, 1, 0.00,60.00,Wednesday
143,912465933.9982443
192,0.0
2,11, 1,11, 0, 2, 0.00,60.00,Wednesday
143,927355811.4870247
192,0.0
2,11, 1,11, 0, 3, 0.00,60.00,Wednesday
143,936645689.3311181
192,0.0
2,11, 1,11, 0, 4, 0.00,60.00,Wednesday
143,946891396.8064466
192,0.0
2,11, 1,11, 0, 5, 0.00,60.00,Wednesday
143,956636534.7765152
192,0.0
2,11, 1,11, 0, 6, 0.00,60.00,Wednesday
143,965897790.0125154
192,0.0
2,11, 1,11, 0, 7, 0.00,60.00,Wednesday
143,976302659.4194252
192,0.0
2,11, 1,11, 0, 8, 0.00,60.00,Wednesday
143,977445845.4141577
192,0.0
2,11, 1,11, 0, 9, 0.00,60.00,Wednesday
143,973123609.9577298
192,0.0
2,11, 1,11, 0,10, 0.00,60.00,Wednesday
143,962992735.7839406
192,0.0
2,11, 1,11, 0,11, 0.00,60.00,Wednesday
143,918424070.1402278
192,0.0
2,11, 1,11, 0,12, 0.00,60.00,Wednesday
143,868515722.7441872
192,0.0
2,11, 1,11, 0,13, 0.00,60.00,Wednesday
143,838831049.3032478
192,0.0
2,11, 1,11, 0,14, 0.00,60.00,Wednesday
143,813178297.6940541
192,0.0
2,11, 1,11, 0,15, 0.00,60.00,Wednesday
143,797391863.2182982
192,0.0
2,11, 1,11, 0,16, 0.00,60.00,Wednesday
143,783753633.1083449
192,0.0
2,11, 1,11, 0,17, 0.00,60.00,Wednesday
143,776108601.9348384
192,0.0
2,11, 1,11, 0,18, 0.00,60.00,Wednesday
143,783658089.9520016
192,0.0
2,11, 1,11, 0,19, 0.00,60.00,Wednesday
143,791225754.9511819
192,0.0
2,11, 1,11, 0,20, 0.00,60.00,Wednesday
143,796132418.5178294
192,0.0
2,11, 1,11, 0,21, 0.00,60.00,Wednesday
143,799335306.7773094
192,0.0
2,11, 1,11, 0,22, 0.00,60.00,Wednesday
143,800422004.7784479
192,0.0
2,11, 1,11, 0,23, 0.00,60.00,Wednesday
143,799431585.393787
192,0.0
2,11, 1,11, 0,24, 0.00,60.00,Wednesday
143,794573550.2626228
192,0.0
2,12, 1,12, 0, 1, 0.00,60.00,Thursday
143,777664161.8847294
192,0.0
2,12, 1,12, 0, 2, 0.00,60.00,Thursday
143,791265395.6185502
192,0.0
2,12, 1,12, 0, 3, 0.00,60.00,Thursday
143,825400828.8358182
192,0.0
2,12, 1,12, 0, 4, 0.00,60.00,Thursday
143,852987005.0569913
192,0.0
2,12, 1,12, 0, 5, 0.00,60.00,Thursday
143,866861780.1049014
192,0.0
2,12, 1,12, 0, 6, 0.00,60.00,Thursday
143,874287489.4055094
192,0.0
2,12, 1,12, 0, 7, 0.00,60.00,Thursday
143,885132996.4786844
192,0.0
2,12, 1,12, 0, 8, 0.00,60.00,Thursday
143,891234254.4673783
192,0.0
2,12, 1,12, 0, 9, 0.00,60.00,Thursday
143,896094352.7054157
192,0.0
2,12, 1,12, 0,10, 0.00,60.00,Thursday
143,894459194.6337702
192,0.0
2,12, 1,12, 0,11, 0.00,60.00,Thursday
143,856113822.9163027
192,0.0
2,12, 1,12, 0,12, 0.00,60.00,Thursday
143,806106172.8739501
192,0.0
2,12, 1,12, 0,13, 0.00,60.00,Thursday
143,783626468.7819488
192,0.0
2,12, 1,12, 0,14, 0.00,60.00,Thursday
143,782345074.465305
192,0.0
2,12, 1,12, 0,15, 0.00,60.00,Thursday
143,798129671.2301207
192,0.0
2,12, 1,12, 0,16, 0.00,60.00,Thursday
143,827904866.4214628
192,0.0
2,12, 1,12, 0,17, 0.00,60.00,Thursday
143,848408037.1973999
192,0.0
2,12, 1,12, 0,18, 0.00,60.00,Thursday
143,873579543.2650042
192,0.0
2,12, 1,12, 0,19, 0.00,60.00,Thursday
143,904518804.2465012
192,0.0
2,12, 1,12, 0,20, 0.00,60.00,Thursday
143,919892513.167055
192,0.0
2,12, 1,12, 0,21, 0.00,60.00,Thursday
143,922959148.0171058
192,0.0
2,12, 1,12, 0,22, 0.00,60.00,Thursday
143,926288720.2826774
192,0.0
2,12, 1,12, 0,23, 0.00,60.00,Thursday
143,933275199.1645917
192,0.0
2,12, 1,12, 0,24, 0.00,60.00,Thursday
143,944642364.0918963
192,0.0
2,13, 1,13, 0, 1, 0.00,60.00,Friday
143,956851886.2317108
192,0.0
2,13, 1,13, 0, 2, 0.00,60.00,Friday
143,965105852.285286
192,0.0
2,13, 1,13, 0, 3, 0.00,60.00,Friday
143,970743402.3161855
192,0.0
2,13, 1,13, 0, 4, 0.00,60.00,Friday
143,983341500.8408008
192,0.0
2,13, 1,13, 0, 5, 0.00,60.00,Friday
143,998498495.4540987
192,0.0
2,13, 1,13, 0, 6, 0.00,60.00,Friday
143,1016847493.1901791
192,0.0
2,13, 1,13, 0, 7, 0.00,60.00,Friday
143,1034314266.3763983
192,0.0
2,13, 1,13, 0, 8, 0.00,60.00,Friday
143,1043051345.9072864
192,0.0
2,13, 1,13, 0, 9, 0.00,60.00,Friday
143,1043293214.9253467
192,0.0
2,13, 1,13, 0,10, 0.00,60.00,Friday
143,1031339901.5963076
192,0.0
2,13, 1,13, 0,11, 0.00,60.00,Friday
143,973012184.2243944
192,0.0
2,13, 1,13, 0,12, 0.00,60.00,Friday
143,906452091.2717595
192,0.0
2,13, 1,13, 0,13, 0.00,60.00,Friday
143,866098406.3341299
192,0.0
2,13, 1,13, 0,14, 0.00,60.00,Friday
143,855111254.5980365
192,0.0
2,13, 1,13, 0,15, 0.00,60.00,Friday
143,872497953.3450923
192,0.0
2,13, 1,13, 0,16, 0.00,60.00,Friday
143,902838483.9109634
192,0.0
2,13, 1,13, 0,17, 0.00,60.00,Friday
143,923961448.4854653
192,0.0
2,13, 1,13, 0,18, 0.00,60.00,Friday
143,949961081.0260311
192,0.0
2,13, 1,13, 0,19, 0.00,60.00,Friday
143,979432672.089385
192,0.0
2,13, 1,13, 0,20, 0.00,60.00,Friday
143,989731551.2503324
192,0.0
2,13, 1,13, 0,21, 0.00,60.00,Friday
143,984065953.2076195
192,0.0
2,13, 1,13, 0,22, 0.00,60.00,Friday
143,982066358.4480703
192,0.0
2,13, 1,13, 0,23, 0.00,60.00,Friday
143,970744748.0407553
192,0.0
2,13, 1,13, 0,24, 0.00,60.00,Friday
143,952943655.2359724
192,0.0
2,14, 1,14, 0, 1, 0.00,60.00,Saturday
143,932485877.7307054
192,0.0
2,14, 1,14, 0, 2, 0.00,60.00,Saturday
143,931287056.2844765
192,0.0
2,14, 1,14, 0, 3, 0.00,60.00,Saturday
143,952154894.693095
192,0.0
2,14, 1,14, 0, 4, 0.00,60.00,Saturday
143,967883637.8119854
192,0.0
2,14, 1,14, 0, 5, 0.00,60.00,Saturday
143,978618809.5427821
192,0.0
2,14, 1,14, 0, 6, 0.00,60.00,Saturday
143,989818357.0700302
192,0.0
2,14, 1,14, 0, 7, 0.00,60.00,Saturday
143,1001846643.5021666
192,0.0
2,14, 1,14, 0, 8, 0.00,60.00,Saturday
143,1013383571.2904516
192,0.0
2,14, 1,14, 0, 9, 0.00,60.00,Saturday
143,1024714274.2785293
192,0.0
2,14, 1,14, 0,10, 0.00,60.00,Saturday
143,1024545958.717571
192,0.0
2,14, 1,14, 0,11, 0.00,60.00,Saturday
143,971631015.2034388
192,0.0
2,14, 1,14, 0,12, 0.00,60.00,Saturday
143,907203157.0033586
192,0.0
2,14, 1,14, 0,13, 0.00,60.00,Saturday
143,869580369.5947909
192,0.0
2,14, 1,14, 0,14, 0.00,60.00,Saturday
143,864278253.1476815
192,0.0
2,14, 1,14, 0,15, 0.00,60.00,Saturday
143,885509412.1769823
192,0.0
2,14, 1,14, 0,16, 0.00,60.00,Saturday
143,921804280.8401672
192,0.0
2,14, 1,14, 0,17, 0.00,60.00,Saturday
143,941186621.2515119
192,0.0
2,14, 1,14, 0,18, 0.00,60.00,Saturday
143,956081095.336934
192,0.0
2,14, 1,14, 0,19, 0.00,60.00,Saturday
143,971679846.9361701
192,0.0
2,14, 1,14, 0,20, 0.00,60.00,Saturday
143,978968706.7425497
192,0.0
2,14, 1,14, 0,21, 0.00,60.00,Saturday
143,981125884.6215059
192,0.0
2,14, 1,14, 0,22, 0.00,60.00,Saturday
143,983490275.7180519
192,0.0
2,14, 1,14, 0,23, 0.00,60.00,Saturday
143,971242025.9250153
192,0.0
2,14, 1,14, 0,24, 0.00,60.00,Saturday
143,950773687.9449558
192,0.0
2,15, 1,15, 0, 1, 0.00,60.00,Sunday
143,927768140.1982967
192,0.0
2,15, 1,15, 0, 2, 0.00,60.00,Sunday
143,917408376.6447203
192,0.0
2,15, 1,15, 0, 3, 0.00,60.00,Sunday
143,918866745.1138296
192,0.0
2,15, 1,15, 0, 4, 0.00,60.00,Sunday
143,921688689.044935
192,0.0
2,15, 1,15, 0, 5, 0.00,60.00,Sunday
143,923489089.4759083
192,0.0
2,15, 1,15, 0, 6, 0.00,60.00,Sunday
143,924307120.6906356
192,0.0
2,15, 1,15, 0, 7, 0.00,60.00,Sunday
143,926038740.6252078
192,0.0
2,15, 1,15, 0, 8, 0.00,60.00,Sunday
143,933749962.7665246
192,0.0
2,15, 1,15, 0, 9, 0.00,60.00,Sunday
143,946592956.1534319
192,0.0
2,15, 1,15, 0,10, 0.00,60.00,Sunday
143,955708735.0174813
192,0.0
2,15, 1,15, 0,11, 0.00,60.00,Sunday
143,946695019.8757684
192,0.0
2,15, 1,15, 0,12, 0.00,60.00,Sunday
143,924850654.8663743
192,0.0
2,15, 1,15, 0,13, 0.00,60.00,Sunday
143,914848612.0522397
192,0.0
2,15, 1,15, 0,14, 0.00,60.00,Sunday
143,909882902.880002
192,0.0
2,15, 1,15, 0,15, 0.00,60.00,Sunday
143,908861701.3076088
192,0.0
2,15, 1,15, 0,16, 0.00,60.00,Sunday
143,908457755.3214148
192,0.0
2,15, 1,15, 0,17, 0.00,60.00,Sunday
143,922294275.8119686
192,0.0
2,15, 1,15, 0,18, 0.00,60.00,Sunday
143,950455648.041035
192,0.0
2,15, 1,15, 0,19, 0.00,60.00,Sunday
143,979910121.0526257
192,0.0
2,15, 1,15, 0,20, 0.00,60.00,Sunday
143,1012707589.7766718
192,0.0
2,15, 1,15, 0,21, 0.00,60.00,Sunday
143,1046752395.8713251
192,0.0
2,15, 1,15, 0,22, 0.00,60.00,Sunday
143,1078699159.897592
192,0.0
2,15, 1,15, 0,23, 0.00,60.00,Sunday
143,1074876800.7223141
192,0.0
2,15, 1,15, 0,24, 0.00,60.00,Sunday
143,1047834390.6074939
192,0.0
2,16, 1,16, 0, 1, 0.00,60.00,Monday
143,1020647823.2252561
192,0.0
2,16, 1,16, 0, 2, 0.00,60.00,Monday
143,1008956068.5302302
192,0.0
2,16, 1,16, 0, 3, 0.00,60.00,Monday
143,1001799687.8318081
192,0.0
2,16, 1,16, 0, 4, 0.00,60.00,Monday
143,994624776.589205
192,0.0
2,16, 1,16, 0, 5, 0.00,60.00,Monday
143,997515255.6936957
192,0.0
2,16, 1,16, 0, 6, 0.00,60.00,Monday
143,1002640264.9734987
192,0.0
2,16, 1,16, 0, 7, 0.00,60.00,Monday
143,1008440144.3101237
192,0.0
2,16, 1,16, 0, 8, 0.00,60.00,Monday
143,994132969.1234562
192,0.0
2,16, 1,16, 0, 9, 0.00,60.00,Monday
143,966258408.9813306
192,0.0
2,16, 1,16, 0,10, 0.00,60.00,Monday
143,942953451.428799
192,0.0
2,16, 1,16, 0,11, 0.00,60.00,Monday
143,916379704.253815
192,0.0
2,16, 1,16, 0,12, 0.00,60.00,Monday
143,889919571.4812427
192,0.0
2,16, 1,16, 0,13, 0.00,60.00,Monday
143,868096498.1683643
192,0.0
2,16, 1,16, 0,14, 0.00,60.00,Monday
143,859819606.0423268
192,0.0
2,16, 1,16, 0,15, 0.00,60.00,Monday
143,860379859.824327
192,0.0
2,16, 1,16, 0,16, 0.00,60.00,Monday
143,863864986.8531744
192,0.0
2,16, 1,16, 0,17, 0.00,60.00,Monday
143,867896243.3887028
192,0.0
2,16, 1,16, 0,18, 0.00,60.00,Monday
143,866831444.8738667
192,0.0
2,16, 1,16, 0,19, 0.00,60.00,Monday
143,865483695.4499038
192,0.0
2,16, 1,16, 0,20, 0.00,60.00,Monday
143,865600312.2531776
192,0.0
2,16, 1,16, 0,21, 0.00,60.00,Monday
143,863430763.6266584
192,0.0
2,16, 1,16, 0,22, 0.00,60.00,Monday
143,861193463.5503176
192,0.0
2,16, 1,16, 0,23, 0.00,60.00,Monday
143,859693929.248296
192,0.0
2,16, 1,16, 0,24, 0.00,60.00,Monday
143,859568297.7452284
192,0.0
2,17, 1,17, 0, 1, 0.00,60.00,Tuesday
143,859609923.1033742
192,0.0
2,17, 1,17, 0, 2, 0.00,60.00,Tuesday
143,864183834.1080419
192,0.0
2,17, 1,17, 0, 3, 0.00,60.00,Tuesday
143,872015770.2909572
192,0.0
2,17, 1,17, 0, 4, 0.00,60.00,Tuesday
143,880378772.41622
192,0.0
2,17, 1,17, 0, 5, 0.00,60.00,Tuesday
143,889888216.9196086
192,0.0
2,17, 1,17, 0, 6, 0.00,60.00,Tuesday
143,900316182.5775918
192,0.0
2,17, 1,17, 0, 7, 0.00,60.00,Tuesday
143,910759454.3885095
192,0.0
2,17, 1,17, 0, 8, 0.00,60.00,Tuesday
143,915073913.6235261
192,0.0
2,17, 1,17, 0, 9, 0.00,60.00,Tuesday
143,913011043.2054527
192,0.0
2,17, 1,17, 0,10, 0.00,60.00,Tuesday
143,906656549.2952255
192,0.0
2,17, 1,17, 0,11, 0.00,60.00,Tuesday
143,889429312.7420669
192,0.0
2,17, 1,17, 0,12, 0.00,60.00,Tuesday
143,869434243.5337596
192,0.0
2,17, 1,17, 0,13, 0.00,60.00,Tuesday
143,852905629.9369584
192,0.0
2,17, 1,17, 0,14, 0.00,60.00,Tuesday
143,843093729.7486513
192,0.0
2,17, 1,17, 0,15, 0.00,60.00,Tuesday
143,838988412.2648491
192,0.0
2,17, 1,17, 0,16, 0.00,60.00,Tuesday
143,837401262.4356556
192,0.0
2,17, 1,17, 0,17, 0.00,60.00,Tuesday
143,830711846.9002464
192,0.0
2,17, 1,17, 0,18, 0.00,60.00,Tuesday
143,819984226.0984488
192,0.0
2,17, 1,17, 0,19, 0.00,60.00,Tuesday
143,808814750.2559644
192,0.0
2,17, 1,17, 0,20, 0.00,60.00,Tuesday
143,798568801.384721
192,0.0
2,17, 1,17, 0,21, 0.00,60.00,Tuesday
143,799995829.8132297
192,0.0
2,17, 1,17, 0,22, 0.00,60.00,Tuesday
143,799106848.1138301
192,0.0
2,17, 1,17, 0,23, 0.00,60.00,Tuesday
143,794609923.9303571
192,0.0
2,17, 1,17, 0,24, 0.00,60.00,Tuesday
143,792302883.1077607
192,0.0
2,18, 1,18, 0, 1, 0.00,60.00,Wednesday
143,790302857.8561562
192,0.0
2,18, 1,18, 0, 2, 0.00,60.00,Wednesday
143,780701696.4666938
192,0.0
2,18, 1,18, 0, 3, 0.00,60.00,Wednesday
143,772292925.0700232
192,0.0
2,18, 1,18, 0, 4, 0.00,60.00,Wednesday
143,770477399.0478847
192,0.0
2,18, 1,18, 0, 5, 0.00,60.00,Wednesday
143,768745419.1992018
192,0.0
2,18, 1,18, 0, 6, 0.00,60.00,Wednesday
143,767465449.3711066
192,0.0
2,18, 1,18, 0, 7, 0.00,60.00,Wednesday
143,767117318.4613392
192,0.0
2,18, 1,18, 0, 8, 0.00,60.00,Wednesday
143,759099426.4749125
192,0.0
2,18, 1,18, 0, 9, 0.00,60.00,Wednesday
143,745660911.5507646
192,0.0
2,18, 1,18, 0,10, 0.00,60.00,Wednesday
143,726736874.5945764
192,0.0
2,18, 1,18, 0,11, 0.00,60.00,Wednesday
143,699452447.3280208
192,0.0
2,18, 1,18, 0,12, 0.00,60.00,Wednesday
143,676160530.4310818
192,0.0
2,18, 1,18, 0,13, 0.00,60.00,Wednesday
143,655487261.2885246
192,0.0
2,18, 1,18, 0,14, 0.00,60.00,Wednesday
143,652362348.2136407
192,0.0
2,18, 1,18, 0,15, 0.00,60.00,Wednesday
143,653495220.0776953
192,0.0
2,18, 1,18, 0,16, 0.00,60.00,Wednesday
143,656478354.2294801
192,0.0
2,18, 1,18, 0,17, 0.00,60.00,Wednesday
143,660777819.6028625
192,0.0
2,18, 1,18, 0,18, 0.00,60.00,Wednesday
143,662852264.2286981
192,0.0
2,18, 1,18, 0,19, 0.00,60.00,Wednesday
143,664101590.0952342
192,0.0
2,18, 1,18, 0,20, 0.00,60.00,Wednesday
143,666573202.4529
192,0.0
2,18, 1,18, 0,21, 0.00,60.00,Wednesday
143,670463070.8016689
192,0.0
2,18, 1,18, 0,22, 0.00,60.00,Wednesday
143,674954839.7681932
192,0.0
2,18, 1,18, 0,23, 0.00,60.00,Wednesday
143,674399471.7654285
192,0.0
2,18, 1,18, 0,24, 0.00,60.00,Wednesday
143,668491587.6194217
192,0.0
2,19, 1,19, 0, 1, 0.00,60.00,Thursday
143,664943031.2636914
192,0.0
2,19, 1,19, 0, 2, 0.00,60.00,Thursday
143,664475273.8796078
192,0.0
2,19, 1,19, 0, 3, 0.00,60.00,Thursday
143,663055124.485489
192,0.0
2,19, 1,19, 0, 4, 0.00,60.00,Thursday
143,661576512.0831805
192,0.0
2,19, 1,19, 0, 5, 0.00,60.00,Thursday
143,659845370.0125256
192,0.0
2,19, 1,19, 0, 6, 0.00,60.00,Thursday
143,656244711.0241196
192,0.0
2,19, 1,19, 0, 7, 0.00,60.00,Thursday