Program Version,EnergyPlus, Version 24.1.0-9d7789a3ac, YMD=2025.04.30 08:58
1,5,Environment Title[],Latitude[deg],Longitude[deg],Time Zone[],Elevation[m]
2,8,Day of Simulation[],Month[],Day of Month[],DST Indicator[1=yes 0=no],Hour[],StartMinute[],EndMinute[],DayType
3,5,Cumulative Day of Simulation[],Month[],Day of Month[],DST Indicator[1=yes 0=no],DayType  ! When Daily Report Variables Requested
4,2,Cumulative Days of Simulation[],Month[]  ! When Monthly Report Variables Requested
5,1,Cumulative Days of Simulation[] ! When Run Period Report Variables Requested
6,1,Calendar Year of Simulation[] ! When Annual Report Variables Requested
192,1,DistrictCooling:Facility [J] !Hourly
143,1,DistrictHeatingWater:Facility [J] !Hourly
End of Data Dictionary
1,RUN PERIOD 1,  59.90,  10.62,   1.00,  17.00
2,1, 1, 1, 0, 1, 0.00,60.00,Sunday
143,817860479.312713
192,0.0
2,1, 1, 1, 0, 2, 0.00,60.00,Sunday
143,889169033.7732317
192,0.0
2,1, 1, 1, 0, 3, 0.00,60.00,Sunday
143,848692217.1218094
192,0.0
2,1, 1, 1, 0, 4, 0.00,60.00,Sunday
143,815786911.023536
192,0.0
2,1, 1, 1, 0, 5, 0.00,60.00,Sunday
143,793845695.7894232
192,0.0
2,1, 1, 1, 0, 6, 0.00,60.00,Sunday
143,781066332.5758036
192,0.0
2,1, 1, 1, 0, 7, 0.00,60.00,Sunday
143,777334587.9296819
192,0.0
2,1, 1, 1, 0, 8, 0.00,60.00,Sunday
143,774278062.7607677
192,0.0
2,1, 1, 1, 0, 9, 0.00,60.00,Sunday
143,766284226.7778575
192,0.0
2,1, 1, 1, 0,10, 0.00,60.00,Sunday
143,1079892053.0069404
192,0.0
2,1, 1, 1, 0,11, 0.00,60.00,Sunday
143,984146035.1679661
192,0.0
2,1, 1, 1, 0,12, 0.00,60.00,Sunday
143,739911240.4224927
192,0.0
2,1, 1, 1, 0,13, 0.00,60.00,Sunday
143,727105860.5534296
192,0.0
2,1, 1, 1, 0,14, 0.00,60.00,Sunday
143,724354792.5858383
192,0.0
2,1, 1, 1, 0,15, 0.00,60.00,Sunday
143,727289696.5895725
192,0.0
2,1, 1, 1, 0,16, 0.00,60.00,Sunday
143,730368366.6571658
192,0.0
2,1, 1, 1, 0,17, 0.00,60.00,Sunday
143,730807214.374107
192,0.0
2,1, 1, 1, 0,18, 0.00,60.00,Sunday
143,728709152.3711996
192,0.0
2,1, 1, 1, 0,19, 0.00,60.00,Sunday
143,725483308.5679759
192,0.0
2,1, 1, 1, 0,20, 0.00,60.00,Sunday
143,721082431.1698105
192,0.0
2,1, 1, 1, 0,21, 0.00,60.00,Sunday
143,715715150.7177792
192,0.0
2,1, 1, 1, 0,22, 0.00,60.00,Sunday
143,710013460.2310328
192,0.0
2,1, 1, 1, 0,23, 0.00,60.00,Sunday
143,703241556.9139968
192,0.0
2,1, 1, 1, 0,24, 0.00,60.00,Sunday
143,696217419.9455864
192,0.0
2,2, 1, 2, 0, 1, 0.00,60.00,Monday
143,689506442.2048631
192,0.0
2,2, 1, 2, 0, 2, 0.00,60.00,Monday
143,680303998.1074612
192,0.0
2,2, 1, 2, 0, 3, 0.00,60.00,Monday
143,680464169.5538034
192,0.0
2,2, 1, 2, 0, 4, 0.00,60.00,Monday
143,678537728.733019
192,0.0
2,2, 1, 2, 0, 5, 0.00,60.00,Monday
143,681379118.2483463
192,0.0
2,2, 1, 2, 0, 6, 0.00,60.00,Monday
143,685884818.6156682
192,0.0
2,2, 1, 2, 0, 7, 0.00,60.00,Monday
143,688949853.073476
192,0.0
2,2, 1, 2, 0, 8, 0.00,60.00,Monday
143,693816886.2959839
192,0.0
2,2, 1, 2, 0, 9, 0.00,60.00,Monday
143,699136046.9918336
192,0.0
2,2, 1, 2, 0,10, 0.00,60.00,Monday
143,702519082.6930385
192,0.0
2,2, 1, 2, 0,11, 0.00,60.00,Monday
143,698805933.4095422
192,0.0
2,2, 1, 2, 0,12, 0.00,60.00,Monday
143,690280620.5886868
192,0.0
2,2, 1, 2, 0,13, 0.00,60.00,Monday
143,684011218.9287663
192,0.0
2,2, 1, 2, 0,14, 0.00,60.00,Monday
143,675602432.3909194
192,0.0
2,2, 1, 2, 0,15, 0.00,60.00,Monday
143,661870981.4009854
192,0.0
2,2, 1, 2, 0,16, 0.00,60.00,Monday
143,647056144.4303206
192,0.0
2,2, 1, 2, 0,17, 0.00,60.00,Monday
143,641075514.562892
192,0.0
2,2, 1, 2, 0,18, 0.00,60.00,Monday
143,643340341.2101872
192,0.0
2,2, 1, 2, 0,19, 0.00,60.00,Monday
143,645853477.814787
192,0.0
2,2, 1, 2, 0,20, 0.00,60.00,Monday
143,653643590.1521261
192,0.0
2,2, 1, 2, 0,21, 0.00,60.00,Monday
143,657519562.9006586
192,0.0
2,2, 1, 2, 0,22, 0.00,60.00,Monday
143,659752681.983252
192,0.0
2,2, 1, 2, 0,23, 0.00,60.00,Monday
143,689394783.7198586
192,0.0
2,2, 1, 2, 0,24, 0.00,60.00,Monday
143,736237430.9611064
192,0.0
2,3, 1, 3, 0, 1, 0.00,60.00,Tuesday
143,780740252.1550524
192,0.0
2,3, 1, 3, 0, 2, 0.00,60.00,Tuesday
143,789652288.5579702
192,0.0
2,3, 1, 3, 0, 3, 0.00,60.00,Tuesday
143,768119047.6016716
192,0.0
2,3, 1, 3, 0, 4, 0.00,60.00,Tuesday
143,740469577.3632842
192,0.0
2,3, 1, 3, 0, 5, 0.00,60.00,Tuesday
143,730481932.8632765
192,0.0
2,3, 1, 3, 0, 6, 0.00,60.00,Tuesday
143,733228216.9354811
192,0.0
2,3, 1, 3, 0, 7, 0.00,60.00,Tuesday
143,736118302.1113523
192,0.0
2,3, 1, 3, 0, 8, 0.00,60.00,Tuesday
143,738780993.3961769
192,0.0
2,3, 1, 3, 0, 9, 0.00,60.00,Tuesday
143,740698748.0581121
192,0.0
2,3, 1, 3, 0,10, 0.00,60.00,Tuesday
143,741985466.702508
192,0.0
2,3, 1, 3, 0,11, 0.00,60.00,Tuesday
143,716443127.6390319
192,0.0
2,3, 1, 3, 0,12, 0.00,60.00,Tuesday
143,682020993.3699112
192,0.0
2,3, 1, 3, 0,13, 0.00,60.00,Tuesday
143,654455995.4887094
192,0.0
2,3, 1, 3, 0,14, 0.00,60.00,Tuesday
143,651235389.0351101
192,0.0
2,3, 1, 3, 0,15, 0.00,60.00,Tuesday
143,672662398.7932229
192,0.0
2,3, 1, 3, 0,16, 0.00,60.00,Tuesday
143,696245024.4919722
192,0.0
2,3, 1, 3, 0,17, 0.00,60.00,Tuesday
143,706003575.5910939
192,0.0
2,3, 1, 3, 0,18, 0.00,60.00,Tuesday
143,714950809.8517995
192,0.0
2,3, 1, 3, 0,19, 0.00,60.00,Tuesday
143,721668200.1067727
192,0.0
2,3, 1, 3, 0,20, 0.00,60.00,Tuesday
143,733981520.1555725
192,0.0
2,3, 1, 3, 0,21, 0.00,60.00,Tuesday
143,753595784.7117192
192,0.0
2,3, 1, 3, 0,22, 0.00,60.00,Tuesday
143,775290545.025048
192,0.0
2,3, 1, 3, 0,23, 0.00,60.00,Tuesday
143,794051374.1152091
192,0.0
2,3, 1, 3, 0,24, 0.00,60.00,Tuesday
143,809729386.7902765
192,0.0
2,4, 1, 4, 0, 1, 0.00,60.00,Wednesday
143,826608772.893059
192,0.0
2,4, 1, 4, 0, 2, 0.00,60.00,Wednesday
143,823417642.0557101
192,0.0
2,4, 1, 4, 0, 3, 0.00,60.00,Wednesday
143,804964339.6237509
192,0.0
2,4, 1, 4, 0, 4, 0.00,60.00,Wednesday
143,789131537.9077773
192,0.0
2,4, 1, 4, 0, 5, 0.00,60.00,Wednesday
143,772633926.9779248
192,0.0
2,4, 1, 4, 0, 6, 0.00,60.00,Wednesday
143,752561832.2982099
192,0.0
2,4, 1, 4, 0, 7, 0.00,60.00,Wednesday
143,731500836.3117195
192,0.0
2,4, 1, 4, 0, 8, 0.00,60.00,Wednesday
143,725193196.8274786
192,0.0
2,4, 1, 4, 0, 9, 0.00,60.00,Wednesday
143,738092395.1788348
192,0.0
2,4, 1, 4, 0,10, 0.00,60.00,Wednesday
143,736483629.6292505
192,0.0
2,4, 1, 4, 0,11, 0.00,60.00,Wednesday
143,711934282.9186804
192,0.0
2,4, 1, 4, 0,12, 0.00,60.00,Wednesday
143,672710663.7219926
192,0.0
2,4, 1, 4, 0,13, 0.00,60.00,Wednesday
143,645942802.043807
192,0.0
2,4, 1, 4, 0,14, 0.00,60.00,Wednesday
143,638397627.6229575
192,0.0
2,4, 1, 4, 0,15, 0.00,60.00,Wednesday
143,643195735.9292306
192,0.0
2,4, 1, 4, 0,16, 0.00,60.00,Wednesday
143,655131139.3667015
192,0.0
2,4, 1, 4, 0,17, 0.00,60.00,Wednesday
143,659857223.5082335
192,0.0
2,4, 1, 4, 0,18, 0.00,60.00,Wednesday
143,659109968.7012458
192,0.0
2,4, 1, 4, 0,19, 0.00,60.00,Wednesday
143,660012030.2585386
192,0.0
2,4, 1, 4, 0,20, 0.00,60.00,Wednesday
143,660168372.7089819
192,0.0
2,4, 1, 4, 0,21, 0.00,60.00,Wednesday
143,659935545.6638408
192,0.0
2,4, 1, 4, 0,22, 0.00,60.00,Wednesday
143,659616880.0330682
192,0.0
2,4, 1, 4, 0,23, 0.00,60.00,Wednesday
143,664437660.9328839
192,0.0
2,4, 1, 4, 0,24, 0.00,60.00,Wednesday
143,674935479.347376
192,0.0
2,5, 1, 5, 0, 1, 0.00,60.00,Thursday
143,689402629.6044399
192,0.0
2,5, 1, 5, 0, 2, 0.00,60.00,Thursday
143,697420925.8225962
192,0.0
2,5, 1, 5, 0, 3, 0.00,60.00,Thursday
143,698559678.4055483
192,0.0
2,5, 1, 5, 0, 4, 0.00,60.00,Thursday
143,702546990.3406849
192,0.0
2,5, 1, 5, 0, 5, 0.00,60.00,Thursday
143,700141358.5612907
192,0.0
2,5, 1, 5, 0, 6, 0.00,60.00,Thursday
143,691966449.515281
192,0.0
2,5, 1, 5, 0, 7, 0.00,60.00,Thursday
143,684479612.5177037
192,0.0
2,5, 1, 5, 0, 8, 0.00,60.00,Thursday
143,685487257.5917181
192,0.0
2,5, 1, 5, 0, 9, 0.00,60.00,Thursday
143,691563177.9059966
192,0.0
2,5, 1, 5, 0,10, 0.00,60.00,Thursday
143,685471626.2164743
192,0.0
2,5, 1, 5, 0,11, 0.00,60.00,Thursday
143,664294291.1163225
192,0.0
2,5, 1, 5, 0,12, 0.00,60.00,Thursday
143,643509226.7776723
192,0.0
2,5, 1, 5, 0,13, 0.00,60.00,Thursday
143,629092509.2320851
192,0.0
2,5, 1, 5, 0,14, 0.00,60.00,Thursday
143,636198710.6116453
192,0.0
2,5, 1, 5, 0,15, 0.00,60.00,Thursday
143,656496347.8908973
192,0.0
2,5, 1, 5, 0,16, 0.00,60.00,Thursday
143,675649807.5813007
192,0.0
2,5, 1, 5, 0,17, 0.00,60.00,Thursday
143,678755465.107537
192,0.0
2,5, 1, 5, 0,18, 0.00,60.00,Thursday
143,669253537.3292137
192,0.0
2,5, 1, 5, 0,19, 0.00,60.00,Thursday
143,800741071.4320378
192,0.0
2,5, 1, 5, 0,20, 0.00,60.00,Thursday
143,771010511.7873594
192,0.0
2,5, 1, 5, 0,21, 0.00,60.00,Thursday
143,666219153.304526
192,0.0
2,5, 1, 5, 0,22, 0.00,60.00,Thursday
143,679447904.4760524
192,0.0
2,5, 1, 5, 0,23, 0.00,60.00,Thursday
143,680887543.9429684
192,0.0
2,5, 1, 5, 0,24, 0.00,60.00,Thursday
143,677828001.6847514
192,0.0
2,6, 1, 6, 0, 1, 0.00,60.00,Friday
143,673147289.8593814
192,0.0
2,6, 1, 6, 0, 2, 0.00,60.00,Friday
143,665565345.0870953
192,0.0
2,6, 1, 6, 0, 3, 0.00,60.00,Friday
143,654927478.5900276
192,0.0
2,6, 1, 6, 0, 4, 0.00,60.00,Friday
143,643522728.3150247
192,0.0
2,6, 1, 6, 0, 5, 0.00,60.00,Friday
143,645087051.5573348
192,0.0
2,6, 1, 6, 0, 6, 0.00,60.00,Friday
143,652124989.6102788
192,0.0
2,6, 1, 6, 0, 7, 0.00,60.00,Friday
143,657242400.3370584
192,0.0
2,6, 1, 6, 0, 8, 0.00,60.00,Friday
143,657891793.8226329
192,0.0
2,6, 1, 6, 0, 9, 0.00,60.00,Friday
143,652612654.2115926
192,0.0
2,6, 1, 6, 0,10, 0.00,60.00,Friday
143,646077454.110715
192,0.0
2,6, 1, 6, 0,11, 0.00,60.00,Friday
143,639339595.3922937
192,0.0
2,6, 1, 6, 0,12, 0.00,60.00,Friday
143,643228740.2656157
192,0.0
2,6, 1, 6, 0,13, 0.00,60.00,Friday
143,813278008.389057
192,0.0
2,6, 1, 6, 0,14, 0.00,60.00,Friday
143,779043838.9254214
192,0.0
2,6, 1, 6, 0,15, 0.00,60.00,Friday
143,651507238.4121807
192,0.0
2,6, 1, 6, 0,16, 0.00,60.00,Friday
143,820069623.8638484
192,0.0
2,6, 1, 6, 0,17, 0.00,60.00,Friday
143,780960825.3278188
192,0.0
2,6, 1, 6, 0,18, 0.00,60.00,Friday
143,638444652.4478348
192,0.0
2,6, 1, 6, 0,19, 0.00,60.00,Friday
143,827459680.0777684
192,0.0
2,6, 1, 6, 0,20, 0.00,60.00,Friday
143,781660216.4656223
192,0.0
2,6, 1, 6, 0,21, 0.00,60.00,Friday
143,633707042.941074
192,0.0
2,6, 1, 6, 0,22, 0.00,60.00,Friday
143,839145853.3981959
192,0.0
2,6, 1, 6, 0,23, 0.00,60.00,Friday
143,802351181.17139
192,0.0
2,6, 1, 6, 0,24, 0.00,60.00,Friday
143,667262939.126686
192,0.0
2,7, 1, 7, 0, 1, 0.00,60.00,Saturday
143,681101860.6066226
192,0.0
2,7, 1, 7, 0, 2, 0.00,60.00,Saturday
143,685343896.552911
192,0.0
2,7, 1, 7, 0, 3, 0.00,60.00,Saturday
143,682368815.4852538
192,0.0
2,7, 1, 7, 0, 4, 0.00,60.00,Saturday
143,681092857.6008002
192,0.0
2,7, 1, 7, 0, 5, 0.00,60.00,Saturday
143,679522306.5119452
192,0.0
2,7, 1, 7, 0, 6, 0.00,60.00,Saturday
143,678721726.7329894
192,0.0
2,7, 1, 7, 0, 7, 0.00,60.00,Saturday
143,680593807.942897
192,0.0
2,7, 1, 7, 0, 8, 0.00,60.00,Saturday
143,682751597.3368727
192,0.0
2,7, 1, 7, 0, 9, 0.00,60.00,Saturday
143,689265985.8999412
192,0.0
2,7, 1, 7, 0,10, 0.00,60.00,Saturday
143,692813364.7849859
192,0.0
2,7, 1, 7, 0,11, 0.00,60.00,Saturday
143,671505969.5871583
192,0.0
2,7, 1, 7, 0,12, 0.00,60.00,Saturday
143,650420351.6722044
192,0.0
2,7, 1, 7, 0,13, 0.00,60.00,Saturday
143,642530702.1428503
192,0.0
2,7, 1, 7, 0,14, 0.00,60.00,Saturday
143,648617195.4454533
192,0.0
2,7, 1, 7, 0,15, 0.00,60.00,Saturday
143,662696896.1845005
192,0.0
2,7, 1, 7, 0,16, 0.00,60.00,Saturday
143,677192349.5772326
192,0.0
2,7, 1, 7, 0,17, 0.00,60.00,Saturday
143,686055400.9699562
192,0.0
2,7, 1, 7, 0,18, 0.00,60.00,Saturday
143,684903802.2934707
192,0.0
2,7, 1, 7, 0,19, 0.00,60.00,Saturday
143,681011925.6555799
192,0.0
2,7, 1, 7, 0,20, 0.00,60.00,Saturday
143,676725043.926878
192,0.0
2,7, 1, 7, 0,21, 0.00,60.00,Saturday
143,667339904.0140581
192,0.0
2,7, 1, 7, 0,22, 0.00,60.00,Saturday
143,660486666.4978639
192,0.0
2,7, 1, 7, 0,23, 0.00,60.00,Saturday
143,659975383.391643
192,0.0
2,7, 1, 7, 0,24, 0.00,60.00,Saturday
143,662381099.9218163
192,0.0
2,8, 1, 8, 0, 1, 0.00,60.00,Sunday
143,665418554.2878749
192,0.0
2,8, 1, 8, 0, 2, 0.00,60.00,Sunday
143,668016808.6325293
192,0.0
2,8, 1, 8, 0, 3, 0.00,60.00,Sunday
143,668166244.9987515
192,0.0
2,8, 1, 8, 0, 4, 0.00,60.00,Sunday
143,669149982.0437915
192,0.0
2,8, 1, 8, 0, 5, 0.00,60.00,Sunday
143,672470932.007997
192,0.0
2,8, 1, 8, 0, 6, 0.00,60.00,Sunday
143,675954735.875345
192,0.0
2,8, 1, 8, 0, 7, 0.00,60.00,Sunday
143,679692040.0411735
192,0.0
2,8, 1, 8, 0, 8, 0.00,60.00,Sunday
143,689702046.6945326
192,0.0
2,8, 1, 8, 0, 9, 0.00,60.00,Sunday
143,704340085.5973752
192,0.0
2,8, 1, 8, 0,10, 0.00,60.00,Sunday
143,717648858.2362548
192,0.0
2,8, 1, 8, 0,11, 0.00,60.00,Sunday
143,708882258.0995768
192,0.0
2,8, 1, 8, 0,12, 0.00,60.00,Sunday
143,685400785.8134694
192,0.0
2,8, 1, 8, 0,13, 0.00,60.00,Sunday
143,664578728.8089294
192,0.0
2,8, 1, 8, 0,14, 0.00,60.00,Sunday
143,667159121.2804229
192,0.0
2,8, 1, 8, 0,15, 0.00,60.00,Sunday
143,687101316.2370636
192,0.0
2,8, 1, 8, 0,16, 0.00,60.00,Sunday
143,709748413.1508335
192,0.0
2,8, 1, 8, 0,17, 0.00,60.00,Sunday
143,724114664.2018759
192,0.0
2,8, 1, 8, 0,18, 0.00,60.00,Sunday
143,734612720.1678476
192,0.0
2,8, 1, 8, 0,19, 0.00,60.00,Sunday
143,741561286.3444593
192,0.0
2,8, 1, 8, 0,20, 0.00,60.00,Sunday
143,748944679.9804564
192,0.0
2,8, 1, 8, 0,21, 0.00,60.00,Sunday
143,757752222.8976202
192,0.0
2,8, 1, 8, 0,22, 0.00,60.00,Sunday
143,767942932.4856318
192,0.0
2,8, 1, 8, 0,23, 0.00,60.00,Sunday
143,780260783.0702432
192,0.0
2,8, 1, 8, 0,24, 0.00,60.00,Sunday
143,793246434.6398332
192,0.0
2,9, 1, 9, 0, 1, 0.00,60.00,Monday
143,804992614.0060512
192,0.0
2,9, 1, 9, 0, 2, 0.00,60.00,Monday
143,808929913.3050742
192,0.0
2,9, 1, 9, 0, 3, 0.00,60.00,Monday
143,814569809.239963
192,0.0
2,9, 1, 9, 0, 4, 0.00,60.00,Monday
143,819621969.5766356
192,0.0
2,9, 1, 9, 0, 5, 0.00,60.00,Monday
143,823405087.8583865
192,0.0
2,9, 1, 9, 0, 6, 0.00,60.00,Monday
143,827170512.928834
192,0.0
2,9, 1, 9, 0, 7, 0.00,60.00,Monday
143,826056002.1373793
192,0.0
2,9, 1, 9, 0, 8, 0.00,60.00,Monday
143,826976894.3036344
192,0.0
2,9, 1, 9, 0, 9, 0.00,60.00,Monday
143,825851084.1660013
192,0.0
2,9, 1, 9, 0,10, 0.00,60.00,Monday
143,823722320.7242482
192,0.0
2,9, 1, 9, 0,11, 0.00,60.00,Monday
143,797387016.0913892
192,0.0
2,9, 1, 9, 0,12, 0.00,60.00,Monday
143,749644338.6505258
192,0.0
2,9, 1, 9, 0,13, 0.00,60.00,Monday
143,695315770.1548638
192,0.0
2,9, 1, 9, 0,14, 0.00,60.00,Monday
143,677115601.0757763
192,0.0
2,9, 1, 9, 0,15, 0.00,60.00,Monday
143,697358348.7742897
192,0.0
2,9, 1, 9, 0,16, 0.00,60.00,Monday
143,724861728.044122
192,0.0
2,9, 1, 9, 0,17, 0.00,60.00,Monday
143,734153201.601619
192,0.0
2,9, 1, 9, 0,18, 0.00,60.00,Monday
143,729688388.7300533
192,0.0
2,9, 1, 9, 0,19, 0.00,60.00,Monday
143,724615736.6615882
192,0.0
2,9, 1, 9, 0,20, 0.00,60.00,Monday
143,745414575.7804269
192,0.0
2,9, 1, 9, 0,21, 0.00,60.00,Monday
143,777110701.0016087
192,0.0
2,9, 1, 9, 0,22, 0.00,60.00,Monday
143,805931417.407821
192,0.0
2,9, 1, 9, 0,23, 0.00,60.00,Monday
143,832127648.0717022
192,0.0
2,9, 1, 9, 0,24, 0.00,60.00,Monday
143,860335105.9536729
192,0.0
2,10, 1,10, 0, 1, 0.00,60.00,Tuesday
143,886794266.7968351
192,0.0
2,10, 1,10, 0, 2, 0.00,60.00,Tuesday
143,890942937.5620682
192,0.0
2,10, 1,10, 0, 3, 0.00,60.00,Tuesday
143,877339437.4822462
192,0.0
2,10, 1,10, 0, 4, 0.00,60.00,Tuesday
143,864150128.0666664
192,0.0
2,10, 1,10, 0, 5, 0.00,60.00,Tuesday
143,852180617.2240709
192,0.0
2,10, 1,10, 0, 6, 0.00,60.00,Tuesday
143,840145677.5345033
192,0.0
2,10, 1,10, 0, 7, 0.00,60.00,Tuesday
143,821511220.8863479
192,0.0
2,10, 1,10, 0, 8, 0.00,60.00,Tuesday
143,817562090.741211
192,0.0
2,10, 1,10, 0, 9, 0.00,60.00,Tuesday
143,822967255.7422969
192,0.0
2,10, 1,10, 0,10, 0.00,60.00,Tuesday
143,825989498.0520769
192,0.0
2,10, 1,10, 0,11, 0.00,60.00,Tuesday
143,816114224.5401702
192,0.0
2,10, 1,10, 0,12, 0.00,60.00,Tuesday
143,797023495.8642206
192,0.0
2,10, 1,10, 0,13, 0.00,60.00,Tuesday
143,780822409.7999588
192,0.0
2,10, 1,10, 0,14, 0.00,60.00,Tuesday
143,772654289.1297681
192,0.0
2,10, 1,10, 0,15, 0.00,60.00,Tuesday
143,771890409.3758858
192,0.0
2,10, 1,10, 0,16, 0.00,60.00,Tuesday
143,769890716.0901804
192,0.0
2,10, 1,10, 0,17, 0.00,60.00,Tuesday
143,773197083.3935921
192,0.0
2,10, 1,10, 0,18, 0.00,60.00,Tuesday
143,785289108.0314313
192,0.0
2,10, 1,10, 0,19, 0.00,60.00,Tuesday
143,799806425.7839401
192,0.0
2,10, 1,10, 0,20, 0.00,60.00,Tuesday
143,812518171.100146
192,0.0
2,10, 1,10, 0,21, 0.00,60.00,Tuesday
143,821798011.0198108
192,0.0
2,10, 1,10, 0,22, 0.00,60.00,Tuesday
143,832418438.9033971
192,0.0
2,10, 1,10, 0,23, 0.00,60.00,Tuesday
143,850861744.8884948
192,0.0
2,10, 1,10, 0,24, 0.00,60.00,Tuesday
143,875736420.4868172
192,0.0
2,11, 1,11, 0, 1, 0.00,60.00,Wednesday
143,901544192.8382586
192,0.0
2,11, 1,11, 0, 2, 0.00,60.00,Wednesday
143,916274036.6795566
192,0.0
2,11, 1,11, 0, 3, 0.00,60.00,Wednesday
143,925453833.4063851
192,0.0
2,11, 1,11, 0, 4, 0.00,60.00,Wednesday
143,935580812.6313212
192,0.0
2,11, 1,11, 0, 5, 0.00,60.00,Wednesday
143,945200495.5076568
192,0.0
2,11, 1,11, 0, 6, 0.00,60.00,Wednesday
143,954339999.0789394
192,0.0
2,11, 1,11, 0, 7, 0.00,60.00,Wednesday
143,964613180.6731951
192,0.0
2,11, 1,11, 0, 8, 0.00,60.00,Wednesday
143,965773873.854932
192,0.0
2,11, 1,11, 0, 9, 0.00,60.00,Wednesday
143,961538037.4833409
192,0.0
2,11, 1,11, 0,10, 0.00,60.00,Wednesday
143,951608652.9526265
192,0.0
2,11, 1,11, 0,11, 0.00,60.00,Wednesday
143,908151815.1463516
192,0.0
2,11, 1,11, 0,12, 0.00,60.00,Wednesday
143,858929692.026814
192,0.0
2,11, 1,11, 0,13, 0.00,60.00,Wednesday
143,829111991.7950054
192,0.0
2,11, 1,11, 0,14, 0.00,60.00,Wednesday
143,803784786.0019176
192,0.0
2,11, 1,11, 0,15, 0.00,60.00,Wednesday
143,788316543.1914476
192,0.0
2,11, 1,11, 0,16, 0.00,60.00,Wednesday
143,775009372.9607551
192,0.0
2,11, 1,11, 0,17, 0.00,60.00,Wednesday
143,767466119.2103562
192,0.0
2,11, 1,11, 0,18, 0.00,60.00,Wednesday
143,774920207.2853327
192,0.0
2,11, 1,11, 0,19, 0.00,60.00,Wednesday
143,782453935.4215006
192,0.0
2,11, 1,11, 0,20, 0.00,60.00,Wednesday
143,787328019.1160326
192,0.0
2,11, 1,11, 0,21, 0.00,60.00,Wednesday
143,790430801.072044
192,0.0
2,11, 1,11, 0,22, 0.00,60.00,Wednesday
143,791385371.3245037
192,0.0
2,11, 1,11, 0,23, 0.00,60.00,Wednesday
143,790360663.4790678
192,0.0
2,11, 1,11, 0,24, 0.00,60.00,Wednesday
143,785541422.5214608
192,0.0
2,12, 1,12, 0, 1, 0.00,60.00,Thursday
143,768854491.5429453
192,0.0
2,12, 1,12, 0, 2, 0.00,60.00,Thursday
143,782215418.4675853
192,0.0
2,12, 1,12, 0, 3, 0.00,60.00,Thursday
143,815842638.6085477
192,0.0
2,12, 1,12, 0, 4, 0.00,60.00,Thursday
143,843011466.9272721
192,0.0
2,12, 1,12, 0, 5, 0.00,60.00,Thursday
143,856660915.3654437
192,0.0
2,12, 1,12, 0, 6, 0.00,60.00,Thursday
143,863944665.908588
192,0.0
2,12, 1,12, 0, 7, 0.00,60.00,Thursday
143,874611483.2745631
192,0.0
2,12, 1,12, 0, 8, 0.00,60.00,Thursday
143,880638359.0014539
192,0.0
2,12, 1,12, 0, 9, 0.00,60.00,Thursday
143,885468132.9381073
192,0.0
2,12, 1,12, 0,10, 0.00,60.00,Thursday
143,883887375.5239389
192,0.0
2,12, 1,12, 0,11, 0.00,60.00,Thursday
143,846753346.6469575
192,0.0
2,12, 1,12, 0,12, 0.00,60.00,Thursday
143,798982335.6304868
192,0.0
2,12, 1,12, 0,13, 0.00,60.00,Thursday
143,776650199.4990206
192,0.0
2,12, 1,12, 0,14, 0.00,60.00,Thursday
143,774948260.9731843
192,0.0
2,12, 1,12, 0,15, 0.00,60.00,Thursday
143,789890796.901005
192,0.0
2,12, 1,12, 0,16, 0.00,60.00,Thursday
143,818616532.419755
192,0.0
2,12, 1,12, 0,17, 0.00,60.00,Thursday
143,838766099.2114197
192,0.0
2,12, 1,12, 0,18, 0.00,60.00,Thursday
143,863502462.7186638
192,0.0
2,12, 1,12, 0,19, 0.00,60.00,Thursday
143,893977283.5511084
192,0.0
2,12, 1,12, 0,20, 0.00,60.00,Thursday
143,909128103.0844638
192,0.0
2,12, 1,12, 0,21, 0.00,60.00,Thursday
143,912131823.8281558
192,0.0
2,12, 1,12, 0,22, 0.00,60.00,Thursday
143,915397635.1399634
192,0.0
2,12, 1,12, 0,23, 0.00,60.00,Thursday
143,922281758.9528716
192,0.0
2,12, 1,12, 0,24, 0.00,60.00,Thursday
143,933497927.7144288
192,0.0
2,13, 1,13, 0, 1, 0.00,60.00,Friday
143,945566594.4074383
192,0.0
2,13, 1,13, 0, 2, 0.00,60.00,Friday
143,953707827.1671119
192,0.0
2,13, 1,13, 0, 3, 0.00,60.00,Friday
143,959204056.0277756
192,0.0
2,13, 1,13, 0, 4, 0.00,60.00,Friday
143,971580378.358099
192,0.0
2,13, 1,13, 0, 5, 0.00,60.00,Friday
143,986507095.864721
192,0.0
2,13, 1,13, 0, 6, 0.00,60.00,Friday
143,1004572060.4035928
192,0.0
2,13, 1,13, 0, 7, 0.00,60.00,Friday
143,1021791200.9847064
192,0.0
2,13, 1,13, 0, 8, 0.00,60.00,Friday
143,1030431132.190689
192,0.0
2,13, 1,13, 0, 9, 0.00,60.00,Friday
143,1030667920.2363158
192,0.0
2,13, 1,13, 0,10, 0.00,60.00,Friday
143,1019013364.1533883
192,0.0
2,13, 1,13, 0,11, 0.00,60.00,Friday
143,962722599.5006621
192,0.0
2,13, 1,13, 0,12, 0.00,60.00,Friday
143,898448822.8977808
192,0.0
2,13, 1,13, 0,13, 0.00,60.00,Friday
143,858365125.1019567
192,0.0
2,13, 1,13, 0,14, 0.00,60.00,Friday
143,847018616.6362072
192,0.0
2,13, 1,13, 0,15, 0.00,60.00,Friday
143,863433120.2573173
192,0.0
2,13, 1,13, 0,16, 0.00,60.00,Friday
143,892605489.1321673
192,0.0
2,13, 1,13, 0,17, 0.00,60.00,Friday
143,913347219.1329161
192,0.0
2,13, 1,13, 0,18, 0.00,60.00,Friday
143,938897878.2217777
192,0.0
2,13, 1,13, 0,19, 0.00,60.00,Friday
143,967909910.4868996
192,0.0
2,13, 1,13, 0,20, 0.00,60.00,Friday
143,978020488.2551563
192,0.0
2,13, 1,13, 0,21, 0.00,60.00,Friday
143,972375189.5946237
192,0.0
2,13, 1,13, 0,22, 0.00,60.00,Friday
143,970366359.0427152
192,0.0
2,13, 1,13, 0,23, 0.00,60.00,Friday
143,959216516.1021509
192,0.0
2,13, 1,13, 0,24, 0.00,60.00,Friday
143,941675610.5647776
192,0.0
2,14, 1,14, 0, 1, 0.00,60.00,Saturday
143,921559385.0953641
192,0.0
2,14, 1,14, 0, 2, 0.00,60.00,Saturday
143,920385342.0420048
192,0.0
2,14, 1,14, 0, 3, 0.00,60.00,Saturday
143,940898317.7766215
192,0.0
2,14, 1,14, 0, 4, 0.00,60.00,Saturday
143,956352793.095842
192,0.0
2,14, 1,14, 0, 5, 0.00,60.00,Saturday
143,966900947.3340585
192,0.0
2,14, 1,14, 0, 6, 0.00,60.00,Saturday
143,977923284.3083136
192,0.0
2,14, 1,14, 0, 7, 0.00,60.00,Saturday
143,989764665.3343588
192,0.0
2,14, 1,14, 0, 8, 0.00,60.00,Saturday
143,1001124020.9892495
192,0.0
2,14, 1,14, 0, 9, 0.00,60.00,Saturday
143,1012284909.2423321
192,0.0
2,14, 1,14, 0,10, 0.00,60.00,Saturday
143,1012253841.7050647
192,0.0
2,14, 1,14, 0,11, 0.00,60.00,Saturday
143,961328857.7965891
192,0.0
2,14, 1,14, 0,12, 0.00,60.00,Saturday
143,899172428.4556775
192,0.0
2,14, 1,14, 0,13, 0.00,60.00,Saturday
143,861731372.1761941
192,0.0
2,14, 1,14, 0,14, 0.00,60.00,Saturday
143,855981837.1368296
192,0.0
2,14, 1,14, 0,15, 0.00,60.00,Saturday
143,876251323.1394062
192,0.0
2,14, 1,14, 0,16, 0.00,60.00,Saturday
143,911300511.7900229
192,0.0
2,14, 1,14, 0,17, 0.00,60.00,Saturday
143,930337749.4315801
192,0.0
2,14, 1,14, 0,18, 0.00,60.00,Saturday
143,944918672.9061143
192,0.0
2,14, 1,14, 0,19, 0.00,60.00,Saturday
143,960213653.176003
192,0.0
2,14, 1,14, 0,20, 0.00,60.00,Saturday
143,967370842.1413496
192,0.0
2,14, 1,14, 0,21, 0.00,60.00,Saturday
143,969490096.3163662
192,0.0
2,14, 1,14, 0,22, 0.00,60.00,Saturday
143,971799811.2279682
192,0.0
2,14, 1,14, 0,23, 0.00,60.00,Saturday
143,959735157.2629342
192,0.0
2,14, 1,14, 0,24, 0.00,60.00,Saturday
143,939570709.671295
192,0.0
2,15, 1,15, 0, 1, 0.00,60.00,Sunday
143,916899513.4655452
192,0.0
2,15, 1,15, 0, 2, 0.00,60.00,Sunday
143,906656174.1288862
192,0.0
2,15, 1,15, 0, 3, 0.00,60.00,Sunday
143,908046479.2980537
192,0.0
2,15, 1,15, 0, 4, 0.00,60.00,Sunday
143,910777079.2703208
192,0.0
2,15, 1,15, 0, 5, 0.00,60.00,Sunday
143,912546667.8827732
192,0.0
2,15, 1,15, 0, 6, 0.00,60.00,Sunday
143,913330106.6130102
192,0.0
2,15, 1,15, 0, 7, 0.00,60.00,Sunday
143,915020115.4476714
192,0.0
2,15, 1,15, 0, 8, 0.00,60.00,Sunday
143,922597966.0415953
192,0.0
2,15, 1,15, 0, 9, 0.00,60.00,Sunday
143,935234920.9351387
192,0.0
2,15, 1,15, 0,10, 0.00,60.00,Sunday
143,944137934.3024734
192,0.0
2,15, 1,15, 0,11, 0.00,60.00,Sunday
143,935130036.3089912
192,0.0
2,15, 1,15, 0,12, 0.00,60.00,Sunday
143,913555988.4019358
192,0.0
2,15, 1,15, 0,13, 0.00,60.00,Sunday
143,903836339.0371556
192,0.0
2,15, 1,15, 0,14, 0.00,60.00,Sunday
143,899017615.3330086
192,0.0
2,15, 1,15, 0,15, 0.00,60.00,Sunday
143,898087843.6624167
192,0.0
2,15, 1,15, 0,16, 0.00,60.00,Sunday
143,897697266.9887743
192,0.0
2,15, 1,15, 0,17, 0.00,60.00,Sunday
143,911368445.287874
192,0.0
2,15, 1,15, 0,18, 0.00,60.00,Sunday
143,939202359.9659218
192,0.0
2,15, 1,15, 0,19, 0.00,60.00,Sunday
143,968348406.6735823
192,0.0
2,15, 1,15, 0,20, 0.00,60.00,Sunday
143,1000726859.322821
192,0.0
2,15, 1,15, 0,21, 0.00,60.00,Sunday
143,1034268919.790231
192,0.0
2,15, 1,15, 0,22, 0.00,60.00,Sunday
143,1065751392.8803991
192,0.0
2,15, 1,15, 0,23, 0.00,60.00,Sunday
143,1061958415.7784629
192,0.0
2,15, 1,15, 0,24, 0.00,60.00,Sunday
143,1035219510.2833706
192,0.0
2,16, 1,16, 0, 1, 0.00,60.00,Monday
143,1008314447.8893183
192,0.0
2,16, 1,16, 0, 2, 0.00,60.00,Monday
143,996742011.3143873
192,0.0
2,16, 1,16, 0, 3, 0.00,60.00,Monday
143,989687180.908839
192,0.0
2,16, 1,16, 0, 4, 0.00,60.00,Monday
143,982608627.5010889
192,0.0
2,16, 1,16, 0, 5, 0.00,60.00,Monday
143,985455006.9201795
192,0.0
2,16, 1,16, 0, 6, 0.00,60.00,Monday
143,990512869.3357801
192,0.0
2,16, 1,16, 0, 7, 0.00,60.00,Monday
143,996236896.6907802
192,0.0
2,16, 1,16, 0, 8, 0.00,60.00,Monday
143,982153631.3136909
192,0.0
2,16, 1,16, 0, 9, 0.00,60.00,Monday
143,954690839.5229208
192,0.0
2,16, 1,16, 0,10, 0.00,60.00,Monday
143,931717014.0484065
192,0.0
2,16, 1,16, 0,11, 0.00,60.00,Monday
143,905406897.5381992
192,0.0
2,16, 1,16, 0,12, 0.00,60.00,Monday
143,879220873.2993711
192,0.0
2,16, 1,16, 0,13, 0.00,60.00,Monday
143,857657004.3526304
192,0.0
2,16, 1,16, 0,14, 0.00,60.00,Monday
143,849549319.7889605
192,0.0
2,16, 1,16, 0,15, 0.00,60.00,Monday
143,850205468.6517744
192,0.0
2,16, 1,16, 0,16, 0.00,60.00,Monday
143,853790083.2428334
192,0.0
2,16, 1,16, 0,17, 0.00,60.00,Monday
143,857819707.1623379
192,0.0
2,16, 1,16, 0,18, 0.00,60.00,Monday
143,856780243.1743425
192,0.0
2,16, 1,16, 0,19, 0.00,60.00,Monday
143,855470617.0048535
192,0.0
2,16, 1,16, 0,20, 0.00,60.00,Monday
143,855592739.9182881
192,0.0
2,16, 1,16, 0,21, 0.00,60.00,Monday
143,853443369.0151136
192,0.0
2,16, 1,16, 0,22, 0.00,60.00,Monday
143,851226987.3310264
192,0.0
2,16, 1,16, 0,23, 0.00,60.00,Monday
143,849715913.2034993
192,0.0
2,16, 1,16, 0,24, 0.00,60.00,Monday
143,849549838.8173103
192,0.0
2,17, 1,17, 0, 1, 0.00,60.00,Tuesday
143,849550024.0217166
192,0.0
2,17, 1,17, 0, 2, 0.00,60.00,Tuesday
143,854020326.7342539
192,0.0
2,17, 1,17, 0, 3, 0.00,60.00,Tuesday
143,861724542.4375006
192,0.0
2,17, 1,17, 0, 4, 0.00,60.00,Tuesday
143,869955506.18926
192,0.0
2,17, 1,17, 0, 5, 0.00,60.00,Tuesday
143,879320786.3321352
192,0.0
2,17, 1,17, 0, 6, 0.00,60.00,Tuesday
143,889591339.6898957
192,0.0
2,17, 1,17, 0, 7, 0.00,60.00,Tuesday
143,899882496.433476
192,0.0
2,17, 1,17, 0, 8, 0.00,60.00,Tuesday
143,904178975.7092047
192,0.0
2,17, 1,17, 0, 9, 0.00,60.00,Tuesday
143,902204043.4304883
192,0.0
2,17, 1,17, 0,10, 0.00,60.00,Tuesday
143,895953658.9485124
192,0.0
2,17, 1,17, 0,11, 0.00,60.00,Tuesday
143,878870672.6056151
192,0.0
2,17, 1,17, 0,12, 0.00,60.00,Tuesday
143,859051467.2804376
192,0.0
2,17, 1,17, 0,13, 0.00,60.00,Tuesday
143,842699778.8538629
192,0.0
2,17, 1,17, 0,14, 0.00,60.00,Tuesday
143,833063504.6795504
192,0.0
2,17, 1,17, 0,15, 0.00,60.00,Tuesday
143,829129827.602658
192,0.0
2,17, 1,17, 0,16, 0.00,60.00,Tuesday
143,827678745.6913276
192,0.0
2,17, 1,17, 0,17, 0.00,60.00,Tuesday
143,821125686.6558473
192,0.0
2,17, 1,17, 0,18, 0.00,60.00,Tuesday
143,810553959.6557131
192,0.0
2,17, 1,17, 0,19, 0.00,60.00,Tuesday
143,799534262.2435251
192,0.0
2,17, 1,17, 0,20, 0.00,60.00,Tuesday
143,789368581.4772263
192,0.0
2,17, 1,17, 0,21, 0.00,60.00,Tuesday
143,790758605.0771813
192,0.0
2,17, 1,17, 0,22, 0.00,60.00,Tuesday
143,789891991.8844578
192,0.0
2,17, 1,17, 0,23, 0.00,60.00,Tuesday
143,785423095.9116957
192,0.0
2,17, 1,17, 0,24, 0.00,60.00,Tuesday
143,783126037.0937483
192,0.0
2,18, 1,18, 0, 1, 0.00,60.00,Wednesday
143,781137001.881587
192,0.0
2,18, 1,18, 0, 2, 0.00,60.00,Wednesday
143,771650444.528194
192,0.0
2,18, 1,18, 0, 3, 0.00,60.00,Wednesday
143,763336235.0127803
192,0.0
2,18, 1,18, 0, 4, 0.00,60.00,Wednesday
143,761538883.10549
192,0.0
2,18, 1,18, 0, 5, 0.00,60.00,Wednesday
143,759815843.8538888
192,0.0
2,18, 1,18, 0, 6, 0.00,60.00,Wednesday
143,758537319.2532815
192,0.0
2,18, 1,18, 0, 7, 0.00,60.00,Wednesday
143,758190077.2432442
192,0.0
2,18, 1,18, 0, 8, 0.00,60.00,Wednesday
143,750300235.6635818
192,0.0
2,18, 1,18, 0, 9, 0.00,60.00,Wednesday
143,737063152.8613284
192,0.0
2,18, 1,18, 0,10, 0.00,60.00,Wednesday
143,718346409.1816446
192,0.0
2,18, 1,18, 0,11, 0.00,60.00,Wednesday
143,691304117.1014469
192,0.0
2,18, 1,18, 0,12, 0.00,60.00,Wednesday
143,668171460.8873178
192,0.0
2,18, 1,18, 0,13, 0.00,60.00,Wednesday
143,647693865.5402414
192,0.0
2,18, 1,18, 0,14, 0.00,60.00,Wednesday
143,644677753.4010018
192,0.0
2,18, 1,18, 0,15, 0.00,60.00,Wednesday
143,645963845.4069077
192,0.0
2,18, 1,18, 0,16, 0.00,60.00,Wednesday
143,649025852.9449347
192,0.0
2,18, 1,18, 0,17, 0.00,60.00,Wednesday
143,653326105.1416717
192,0.0
2,18, 1,18, 0,18, 0.00,60.00,Wednesday
143,655357772.4686708
192,0.0
2,18, 1,18, 0,19, 0.00,60.00,Wednesday
143,656593743.1390811
192,0.0
2,18, 1,18, 0,20, 0.00,60.00,Wednesday
143,659038688.8652558
192,0.0
2,18, 1,18, 0,21, 0.00,60.00,Wednesday
143,662882531.0123816
192,0.0
2,18, 1,18, 0,22, 0.00,60.00,Wednesday
143,667289653.8184661
192,0.0
2,18, 1,18, 0,23, 0.00,60.00,Wednesday
143,666727788.3503646
192,0.0
2,18, 1,18, 0,24, 0.00,60.00,Wednesday
143,660878899.845327
192,0.0
2,19, 1,19, 0, 1, 0.00,60.00,Thursday
143,657363334.0045627
192,0.0
2,19, 1,19, 0, 2, 0.00,60.00,Thursday
143,656896851.7644494
192,0.0
2,19, 1,19, 0, 3, 0.00,60.00,Thursday
143,655478680.8884227
192,0.0
2,19, 1,19, 0, 4, 0.00,60.00,Thursday
143,654021406.8499845
192,0.0
2,19, 1,19, 0, 5, 0.00,60.00,Thursday
143,652311614.888671
192,0.0
2,19, 1,19, 0, 6, 0.00,60.00,Thursday
143,648759950.0637347
192,0.0
2,19, 1,19, 0, 7, 0.00,60.00,Thursday