Program Version,EnergyPlus, Version 24.1.0-9d7789a3ac, YMD=2025.04.30 08:57
1,5,Environment Title[],Latitude[deg],Longitude[deg],Time Zone[],Elevation[m]
2,8,Day of Simulation[],Month[],Day of Month[],DST Indicator[1=yes 0=no],Hour[],StartMinute[],EndMinute[],DayType
3,5,Cumulative Day of Simulation[],Month[],Day of Month[],DST Indicator[1=yes 0=no],DayType  ! When Daily Meters Requested
4,2,Cumulative Days of Simulation[],Month[]  ! When Monthly Meters Requested
5,1,Cumulative Days of Simulation[] ! When Run Period Meters Requested
6,1,Calendar Year of Simulation[] ! When Annual Meters Requested
192,1,DistrictCooling:Facility [J] !Hourly
143,1,DistrictHeatingWater:Facility [J] !Hourly
End of Data Dictionary
1,RUN PERIOD 1,  59.90,  10.62,   1.00,  17.00
2,1, 1, 1, 0, 1, 0.00,60.00,Sunday
143,817802218.6807704
192,0.0
2,1, 1, 1, 0, 2, 0.00,60.00,Sunday
143,889108608.0149864
192,0.0
2,1, 1, 1, 0, 3, 0.00,60.00,Sunday
143,848632855.6333197
192,0.0
2,1, 1, 1, 0, 4, 0.00,60.00,Sunday
143,815729014.924366
192,0.0
2,1, 1, 1, 0, 5, 0.00,60.00,Sunday
143,793788483.0409331
192,0.0
2,1, 1, 1, 0, 6, 0.00,60.00,Sunday
143,781009442.1153467
192,0.0
2,1, 1, 1, 0, 7, 0.00,60.00,Sunday
143,777277543.0942414
192,0.0
2,1, 1, 1, 0, 8, 0.00,60.00,Sunday
143,774220948.6201397
192,0.0
2,1, 1, 1, 0, 9, 0.00,60.00,Sunday
143,766227333.4572835
192,0.0
2,1, 1, 1, 0,10, 0.00,60.00,Sunday
143,1079810274.9660323
192,0.0
2,1, 1, 1, 0,11, 0.00,60.00,Sunday
143,984071585.0430626
192,0.0
2,1, 1, 1, 0,12, 0.00,60.00,Sunday
143,739853960.4420099
192,0.0
2,1, 1, 1, 0,13, 0.00,60.00,Sunday
143,727048961.6518645
192,0.0
2,1, 1, 1, 0,14, 0.00,60.00,Sunday
143,724298280.0252602
192,0.0
2,1, 1, 1, 0,15, 0.00,60.00,Sunday
143,727233659.8588517
192,0.0
2,1, 1, 1, 0,16, 0.00,60.00,Sunday
143,730312722.1703279
192,0.0
2,1, 1, 1, 0,17, 0.00,60.00,Sunday
143,730752028.312836
192,0.0
2,1, 1, 1, 0,18, 0.00,60.00,Sunday
143,728654038.0211734
192,0.0
2,1, 1, 1, 0,19, 0.00,60.00,Sunday
143,725427756.5230466
192,0.0
2,1, 1, 1, 0,20, 0.00,60.00,Sunday
143,721027026.3342878
192,0.0
2,1, 1, 1, 0,21, 0.00,60.00,Sunday
143,715659944.9334171
192,0.0
2,1, 1, 1, 0,22, 0.00,60.00,Sunday
143,709958406.244198
192,0.0
2,1, 1, 1, 0,23, 0.00,60.00,Sunday
143,703186800.4506423
192,0.0
2,1, 1, 1, 0,24, 0.00,60.00,Sunday
143,696162975.8753387
192,0.0
2,2, 1, 2, 0, 1, 0.00,60.00,Monday
143,689452371.8792562
192,0.0
2,2, 1, 2, 0, 2, 0.00,60.00,Monday
143,680250097.7370384
192,0.0
2,2, 1, 2, 0, 3, 0.00,60.00,Monday
143,680409716.5063179
192,0.0
2,2, 1, 2, 0, 4, 0.00,60.00,Monday
143,678482511.0903907
192,0.0
2,2, 1, 2, 0, 5, 0.00,60.00,Monday
143,681322397.6456244
192,0.0
2,2, 1, 2, 0, 6, 0.00,60.00,Monday
143,685825317.5193852
192,0.0
2,2, 1, 2, 0, 7, 0.00,60.00,Monday
143,688889496.8873069
192,0.0
2,2, 1, 2, 0, 8, 0.00,60.00,Monday
143,693755657.9629779
192,0.0
2,2, 1, 2, 0, 9, 0.00,60.00,Monday
143,699074567.4465709
192,0.0
2,2, 1, 2, 0,10, 0.00,60.00,Monday
143,702457350.954673
192,0.0
2,2, 1, 2, 0,11, 0.00,60.00,Monday
143,698744145.2925344
192,0.0
2,2, 1, 2, 0,12, 0.00,60.00,Monday
143,690219068.4505229
192,0.0
2,2, 1, 2, 0,13, 0.00,60.00,Monday
143,683950134.5584466
192,0.0
2,2, 1, 2, 0,14, 0.00,60.00,Monday
143,675542966.5684427
192,0.0
2,2, 1, 2, 0,15, 0.00,60.00,Monday
143,661814122.4913445
192,0.0
2,2, 1, 2, 0,16, 0.00,60.00,Monday
143,647001881.8781241
192,0.0
2,2, 1, 2, 0,17, 0.00,60.00,Monday
143,641021976.5595462
192,0.0
2,2, 1, 2, 0,18, 0.00,60.00,Monday
143,643286445.7471583
192,0.0
2,2, 1, 2, 0,19, 0.00,60.00,Monday
143,645798903.8894676
192,0.0
2,2, 1, 2, 0,20, 0.00,60.00,Monday
143,653589040.6506436
192,0.0
2,2, 1, 2, 0,21, 0.00,60.00,Monday
143,657465665.7696608
192,0.0
2,2, 1, 2, 0,22, 0.00,60.00,Monday
143,659699355.3937223
192,0.0
2,2, 1, 2, 0,23, 0.00,60.00,Monday
143,689340728.8744776
192,0.0
2,2, 1, 2, 0,24, 0.00,60.00,Monday
143,736182214.6910875
192,0.0
2,3, 1, 3, 0, 1, 0.00,60.00,Tuesday
143,780683763.9375054
192,0.0
2,3, 1, 3, 0, 2, 0.00,60.00,Tuesday
143,789595506.5152607
192,0.0
2,3, 1, 3, 0, 3, 0.00,60.00,Tuesday
143,768062835.2635336
192,0.0
2,3, 1, 3, 0, 4, 0.00,60.00,Tuesday
143,740414055.6425616
192,0.0
2,3, 1, 3, 0, 5, 0.00,60.00,Tuesday
143,730426510.7168943
192,0.0
2,3, 1, 3, 0, 6, 0.00,60.00,Tuesday
143,733172682.4328437
192,0.0
2,3, 1, 3, 0, 7, 0.00,60.00,Tuesday
143,736062916.645576
192,0.0
2,3, 1, 3, 0, 8, 0.00,60.00,Tuesday
143,738725708.2185184
192,0.0
2,3, 1, 3, 0, 9, 0.00,60.00,Tuesday
143,740643406.6759589
192,0.0
2,3, 1, 3, 0,10, 0.00,60.00,Tuesday
143,741929850.8673708
192,0.0
2,3, 1, 3, 0,11, 0.00,60.00,Tuesday
143,716390074.1108556
192,0.0
2,3, 1, 3, 0,12, 0.00,60.00,Tuesday
143,681969782.6440483
192,0.0
2,3, 1, 3, 0,13, 0.00,60.00,Tuesday
143,654405036.4262705
192,0.0
2,3, 1, 3, 0,14, 0.00,60.00,Tuesday
143,651177111.390265
192,0.0
2,3, 1, 3, 0,15, 0.00,60.00,Tuesday
143,672603559.036235
192,0.0
2,3, 1, 3, 0,16, 0.00,60.00,Tuesday
143,696188581.5437436
192,0.0
2,3, 1, 3, 0,17, 0.00,60.00,Tuesday
143,705947077.7433782
192,0.0
2,3, 1, 3, 0,18, 0.00,60.00,Tuesday
143,714894754.6299243
192,0.0
2,3, 1, 3, 0,19, 0.00,60.00,Tuesday
143,721612703.2674311
192,0.0
2,3, 1, 3, 0,20, 0.00,60.00,Tuesday
143,733926128.7735866
192,0.0
2,3, 1, 3, 0,21, 0.00,60.00,Tuesday
143,753539930.8337461
192,0.0
2,3, 1, 3, 0,22, 0.00,60.00,Tuesday
143,775234185.2144755
192,0.0
2,3, 1, 3, 0,23, 0.00,60.00,Tuesday
143,793994564.8281462
192,0.0
2,3, 1, 3, 0,24, 0.00,60.00,Tuesday
143,809671968.7209834
192,0.0
2,4, 1, 4, 0, 1, 0.00,60.00,Wednesday
143,826550570.7162049
192,0.0
2,4, 1, 4, 0, 2, 0.00,60.00,Wednesday
143,823359550.9183283
192,0.0
2,4, 1, 4, 0, 3, 0.00,60.00,Wednesday
143,804906941.5055236
192,0.0
2,4, 1, 4, 0, 4, 0.00,60.00,Wednesday
143,789074608.8802313
192,0.0
2,4, 1, 4, 0, 5, 0.00,60.00,Wednesday
143,772577405.1458488
192,0.0
2,4, 1, 4, 0, 6, 0.00,60.00,Wednesday
143,752505862.1676747
192,0.0
2,4, 1, 4, 0, 7, 0.00,60.00,Wednesday
143,731445443.1300094
192,0.0
2,4, 1, 4, 0, 8, 0.00,60.00,Wednesday
143,725137527.402901
192,0.0
2,4, 1, 4, 0, 9, 0.00,60.00,Wednesday
143,738033282.0781057
192,0.0
2,4, 1, 4, 0,10, 0.00,60.00,Wednesday
143,736422609.4499425
192,0.0
2,4, 1, 4, 0,11, 0.00,60.00,Wednesday
143,711874819.1217272
192,0.0
2,4, 1, 4, 0,12, 0.00,60.00,Wednesday
143,672657550.0043844
192,0.0
2,4, 1, 4, 0,13, 0.00,60.00,Wednesday
143,645889641.0813568
192,0.0
2,4, 1, 4, 0,14, 0.00,60.00,Wednesday
143,638342388.2125797
192,0.0
2,4, 1, 4, 0,15, 0.00,60.00,Wednesday
143,643142656.0325817
192,0.0
2,4, 1, 4, 0,16, 0.00,60.00,Wednesday
143,655079834.1441226
192,0.0
2,4, 1, 4, 0,17, 0.00,60.00,Wednesday
143,659805860.3850781
192,0.0
2,4, 1, 4, 0,18, 0.00,60.00,Wednesday
143,659058399.5368387
192,0.0
2,4, 1, 4, 0,19, 0.00,60.00,Wednesday
143,659960124.492651
192,0.0
2,4, 1, 4, 0,20, 0.00,60.00,Wednesday
143,660116225.0601156
192,0.0
2,4, 1, 4, 0,21, 0.00,60.00,Wednesday
143,659883355.6848749
192,0.0
2,4, 1, 4, 0,22, 0.00,60.00,Wednesday
143,659564441.0580844
192,0.0
2,4, 1, 4, 0,23, 0.00,60.00,Wednesday
143,664384664.2674795
192,0.0
2,4, 1, 4, 0,24, 0.00,60.00,Wednesday
143,674881758.067551
192,0.0
2,5, 1, 5, 0, 1, 0.00,60.00,Thursday
143,689348122.506466
192,0.0
2,5, 1, 5, 0, 2, 0.00,60.00,Thursday
143,697366487.2298208
192,0.0
2,5, 1, 5, 0, 3, 0.00,60.00,Thursday
143,698505562.8151407
192,0.0
2,5, 1, 5, 0, 4, 0.00,60.00,Thursday
143,702492990.1144971
192,0.0
2,5, 1, 5, 0, 5, 0.00,60.00,Thursday
143,700087378.2693466
192,0.0
2,5, 1, 5, 0, 6, 0.00,60.00,Thursday
143,691912541.7348455
192,0.0
2,5, 1, 5, 0, 7, 0.00,60.00,Thursday
143,684425776.9013537
192,0.0
2,5, 1, 5, 0, 8, 0.00,60.00,Thursday
143,685431980.7634507
192,0.0
2,5, 1, 5, 0, 9, 0.00,60.00,Thursday
143,691504873.2765307
192,0.0
2,5, 1, 5, 0,10, 0.00,60.00,Thursday
143,685411074.0521376
192,0.0
2,5, 1, 5, 0,11, 0.00,60.00,Thursday
143,664234601.084275
192,0.0
2,5, 1, 5, 0,12, 0.00,60.00,Thursday
143,643450237.0224811
192,0.0
2,5, 1, 5, 0,13, 0.00,60.00,Thursday
143,629034273.9412471
192,0.0
2,5, 1, 5, 0,14, 0.00,60.00,Thursday
143,636140483.6326984
192,0.0
2,5, 1, 5, 0,15, 0.00,60.00,Thursday
143,656437766.4120225
192,0.0
2,5, 1, 5, 0,16, 0.00,60.00,Thursday
143,675590580.866761
192,0.0
2,5, 1, 5, 0,17, 0.00,60.00,Thursday
143,678696194.9569418
192,0.0
2,5, 1, 5, 0,18, 0.00,60.00,Thursday
143,669194944.2612811
192,0.0
2,5, 1, 5, 0,19, 0.00,60.00,Thursday
143,800668980.2199316
192,0.0
2,5, 1, 5, 0,20, 0.00,60.00,Thursday
143,770941201.248034
192,0.0
2,5, 1, 5, 0,21, 0.00,60.00,Thursday
143,666160623.725735
192,0.0
2,5, 1, 5, 0,22, 0.00,60.00,Thursday
143,679389837.4343665
192,0.0
2,5, 1, 5, 0,23, 0.00,60.00,Thursday
143,680829704.5515084
192,0.0
2,5, 1, 5, 0,24, 0.00,60.00,Thursday
143,677770045.326143
192,0.0
2,6, 1, 6, 0, 1, 0.00,60.00,Friday
143,673089262.8296293
192,0.0
2,6, 1, 6, 0, 2, 0.00,60.00,Friday
143,665508196.6320713
192,0.0
2,6, 1, 6, 0, 3, 0.00,60.00,Friday
143,654872090.2656864
192,0.0
2,6, 1, 6, 0, 4, 0.00,60.00,Friday
143,643468860.0570364
192,0.0
2,6, 1, 6, 0, 5, 0.00,60.00,Friday
143,645033110.9148772
192,0.0
2,6, 1, 6, 0, 6, 0.00,60.00,Friday
143,652070225.2633429
192,0.0
2,6, 1, 6, 0, 7, 0.00,60.00,Friday
143,657186961.4218537
192,0.0
2,6, 1, 6, 0, 8, 0.00,60.00,Friday
143,657835776.668422
192,0.0
2,6, 1, 6, 0, 9, 0.00,60.00,Friday
143,652556525.877679
192,0.0
2,6, 1, 6, 0,10, 0.00,60.00,Friday
143,646021117.240936
192,0.0
2,6, 1, 6, 0,11, 0.00,60.00,Friday
143,639282808.6985416
192,0.0
2,6, 1, 6, 0,12, 0.00,60.00,Friday
143,643171340.7964454
192,0.0
2,6, 1, 6, 0,13, 0.00,60.00,Friday
143,813205379.1634203
192,0.0
2,6, 1, 6, 0,14, 0.00,60.00,Friday
143,778974841.8158082
192,0.0
2,6, 1, 6, 0,15, 0.00,60.00,Friday
143,651450421.131226
192,0.0
2,6, 1, 6, 0,16, 0.00,60.00,Friday
143,819997242.2979515
192,0.0
2,6, 1, 6, 0,17, 0.00,60.00,Friday
143,780892911.0612879
192,0.0
2,6, 1, 6, 0,18, 0.00,60.00,Friday
143,638390674.047122
192,0.0
2,6, 1, 6, 0,19, 0.00,60.00,Friday
143,827387690.5613966
192,0.0
2,6, 1, 6, 0,20, 0.00,60.00,Friday
143,781593168.5399045
192,0.0
2,6, 1, 6, 0,21, 0.00,60.00,Friday
143,633654039.9558746
192,0.0
2,6, 1, 6, 0,22, 0.00,60.00,Friday
143,839073345.7450701
192,0.0
2,6, 1, 6, 0,23, 0.00,60.00,Friday
143,802282895.9499733
192,0.0
2,6, 1, 6, 0,24, 0.00,60.00,Friday
143,667208211.2945821
192,0.0
2,7, 1, 7, 0, 1, 0.00,60.00,Saturday
143,681046804.7984271
192,0.0
2,7, 1, 7, 0, 2, 0.00,60.00,Saturday
143,685288923.6675631
192,0.0
2,7, 1, 7, 0, 3, 0.00,60.00,Saturday
143,682314303.2277156
192,0.0
2,7, 1, 7, 0, 4, 0.00,60.00,Saturday
143,681038614.97842
192,0.0
2,7, 1, 7, 0, 5, 0.00,60.00,Saturday
143,679468166.7918264
192,0.0
2,7, 1, 7, 0, 6, 0.00,60.00,Saturday
143,678667644.6360899
192,0.0
2,7, 1, 7, 0, 7, 0.00,60.00,Saturday
143,680539723.725701
192,0.0
2,7, 1, 7, 0, 8, 0.00,60.00,Saturday
143,682696914.6958386
192,0.0
2,7, 1, 7, 0, 9, 0.00,60.00,Saturday
143,689211954.6227561
192,0.0
2,7, 1, 7, 0,10, 0.00,60.00,Saturday
143,692758981.2326084
192,0.0
2,7, 1, 7, 0,11, 0.00,60.00,Saturday
143,671454570.6701713
192,0.0
2,7, 1, 7, 0,12, 0.00,60.00,Saturday
143,650369542.647417
192,0.0
2,7, 1, 7, 0,13, 0.00,60.00,Saturday
143,642480221.1099898
192,0.0
2,7, 1, 7, 0,14, 0.00,60.00,Saturday
143,648564249.7516202
192,0.0
2,7, 1, 7, 0,15, 0.00,60.00,Saturday
143,662644532.0560328
192,0.0
2,7, 1, 7, 0,16, 0.00,60.00,Saturday
143,677140898.7893143
192,0.0
2,7, 1, 7, 0,17, 0.00,60.00,Saturday
143,686003102.9538358
192,0.0
2,7, 1, 7, 0,18, 0.00,60.00,Saturday
143,684850710.1159298
192,0.0
2,7, 1, 7, 0,19, 0.00,60.00,Saturday
143,680958124.8377861
192,0.0
2,7, 1, 7, 0,20, 0.00,60.00,Saturday
143,676671262.4331366
192,0.0
2,7, 1, 7, 0,21, 0.00,60.00,Saturday
143,667287024.5723786
192,0.0
2,7, 1, 7, 0,22, 0.00,60.00,Saturday
143,660434233.7700027
192,0.0
2,7, 1, 7, 0,23, 0.00,60.00,Saturday
143,659922887.1110277
192,0.0
2,7, 1, 7, 0,24, 0.00,60.00,Saturday
143,662328370.199791
192,0.0
2,8, 1, 8, 0, 1, 0.00,60.00,Sunday
143,665365536.2296424
192,0.0
2,8, 1, 8, 0, 2, 0.00,60.00,Sunday
143,667963666.2176797
192,0.0
2,8, 1, 8, 0, 3, 0.00,60.00,Sunday
143,668113162.9614311
192,0.0
2,8, 1, 8, 0, 4, 0.00,60.00,Sunday
143,669096735.0495335
192,0.0
2,8, 1, 8, 0, 5, 0.00,60.00,Sunday
143,672417336.4569077
192,0.0
2,8, 1, 8, 0, 6, 0.00,60.00,Sunday
143,675900873.707449
192,0.0
2,8, 1, 8, 0, 7, 0.00,60.00,Sunday
143,679638351.9183184
192,0.0
2,8, 1, 8, 0, 8, 0.00,60.00,Sunday
143,689647648.2882411
192,0.0
2,8, 1, 8, 0, 9, 0.00,60.00,Sunday
143,704284088.5328343
192,0.0
2,8, 1, 8, 0,10, 0.00,60.00,Sunday
143,717590924.4770966
192,0.0
2,8, 1, 8, 0,11, 0.00,60.00,Sunday
143,708824093.722736
192,0.0
2,8, 1, 8, 0,12, 0.00,60.00,Sunday
143,685344089.4645088
192,0.0
2,8, 1, 8, 0,13, 0.00,60.00,Sunday
143,664523203.5010716
192,0.0
2,8, 1, 8, 0,14, 0.00,60.00,Sunday
143,667103666.2918079
192,0.0
2,8, 1, 8, 0,15, 0.00,60.00,Sunday
143,687045330.0729688
192,0.0
2,8, 1, 8, 0,16, 0.00,60.00,Sunday
143,709691656.9535756
192,0.0
2,8, 1, 8, 0,17, 0.00,60.00,Sunday
143,724057540.6657577
192,0.0
2,8, 1, 8, 0,18, 0.00,60.00,Sunday
143,734555942.0149517
192,0.0
2,8, 1, 8, 0,19, 0.00,60.00,Sunday
143,741504962.4609936
192,0.0
2,8, 1, 8, 0,20, 0.00,60.00,Sunday
143,748888491.3354237
192,0.0
2,8, 1, 8, 0,21, 0.00,60.00,Sunday
143,757695866.8848362
192,0.0
2,8, 1, 8, 0,22, 0.00,60.00,Sunday
143,767886360.43513
192,0.0
2,8, 1, 8, 0,23, 0.00,60.00,Sunday
143,780203897.9313623
192,0.0
2,8, 1, 8, 0,24, 0.00,60.00,Sunday
143,793189213.811046
192,0.0
2,9, 1, 9, 0, 1, 0.00,60.00,Monday
143,804935044.1658623
192,0.0
2,9, 1, 9, 0, 2, 0.00,60.00,Monday
143,808872033.2974933
192,0.0
2,9, 1, 9, 0, 3, 0.00,60.00,Monday
143,814511055.3336444
192,0.0
2,9, 1, 9, 0, 4, 0.00,60.00,Monday
143,819562421.2019515
192,0.0
2,9, 1, 9, 0, 5, 0.00,60.00,Monday
143,823344038.3834856
192,0.0
2,9, 1, 9, 0, 6, 0.00,60.00,Monday
143,827107131.6102626
192,0.0
2,9, 1, 9, 0, 7, 0.00,60.00,Monday
143,825990046.974129
192,0.0
2,9, 1, 9, 0, 8, 0.00,60.00,Monday
143,826909295.9668962
192,0.0
2,9, 1, 9, 0, 9, 0.00,60.00,Monday
143,825782458.4128773
192,0.0
2,9, 1, 9, 0,10, 0.00,60.00,Monday
143,823652696.4254727
192,0.0
2,9, 1, 9, 0,11, 0.00,60.00,Monday
143,797319118.9971651
192,0.0
2,9, 1, 9, 0,12, 0.00,60.00,Monday
143,749581395.1306996
192,0.0
2,9, 1, 9, 0,13, 0.00,60.00,Monday
143,695258116.8990183
192,0.0
2,9, 1, 9, 0,14, 0.00,60.00,Monday
143,677059324.9182454
192,0.0
2,9, 1, 9, 0,15, 0.00,60.00,Monday
143,697301336.7786472
192,0.0
2,9, 1, 9, 0,16, 0.00,60.00,Monday
143,724803768.6176016
192,0.0
2,9, 1, 9, 0,17, 0.00,60.00,Monday
143,734094780.3771175
192,0.0
2,9, 1, 9, 0,18, 0.00,60.00,Monday
143,729630444.0585647
192,0.0
2,9, 1, 9, 0,19, 0.00,60.00,Monday
143,724558299.0323994
192,0.0
2,9, 1, 9, 0,20, 0.00,60.00,Monday
143,745356761.9368227
192,0.0
2,9, 1, 9, 0,21, 0.00,60.00,Monday
143,777052283.0619488
192,0.0
2,9, 1, 9, 0,22, 0.00,60.00,Monday
143,805872469.7254158
192,0.0
2,9, 1, 9, 0,23, 0.00,60.00,Monday
143,832068261.9622833
192,0.0
2,9, 1, 9, 0,24, 0.00,60.00,Monday
143,860275122.9074014
192,0.0
2,10, 1,10, 0, 1, 0.00,60.00,Tuesday
143,886734191.5370047
192,0.0
2,10, 1,10, 0, 2, 0.00,60.00,Tuesday
143,890883068.7816226
192,0.0
2,10, 1,10, 0, 3, 0.00,60.00,Tuesday
143,877279866.6217885
192,0.0
2,10, 1,10, 0, 4, 0.00,60.00,Tuesday
143,864090919.38082
192,0.0
2,10, 1,10, 0, 5, 0.00,60.00,Tuesday
143,852121028.1813935
192,0.0
2,10, 1,10, 0, 6, 0.00,60.00,Tuesday
143,840084609.3762872
192,0.0
2,10, 1,10, 0, 7, 0.00,60.00,Tuesday
143,821449010.732821
192,0.0
2,10, 1,10, 0, 8, 0.00,60.00,Tuesday
143,817498106.1204854
192,0.0
2,10, 1,10, 0, 9, 0.00,60.00,Tuesday
143,822901587.4077218
192,0.0
2,10, 1,10, 0,10, 0.00,60.00,Tuesday
143,825921993.3998613
192,0.0
2,10, 1,10, 0,11, 0.00,60.00,Tuesday
143,816046195.6518801
192,0.0
2,10, 1,10, 0,12, 0.00,60.00,Tuesday
143,796956096.5932424
192,0.0
2,10, 1,10, 0,13, 0.00,60.00,Tuesday
143,780755856.4265316
192,0.0
2,10, 1,10, 0,14, 0.00,60.00,Tuesday
143,772588859.897158
192,0.0
2,10, 1,10, 0,15, 0.00,60.00,Tuesday
143,771826434.1234355
192,0.0
2,10, 1,10, 0,16, 0.00,60.00,Tuesday
143,769828737.4919297
192,0.0
2,10, 1,10, 0,17, 0.00,60.00,Tuesday
143,773135989.1269406
192,0.0
2,10, 1,10, 0,18, 0.00,60.00,Tuesday
143,785227744.1261585
192,0.0
2,10, 1,10, 0,19, 0.00,60.00,Tuesday
143,799744747.0933421
192,0.0
2,10, 1,10, 0,20, 0.00,60.00,Tuesday
143,812456746.5709167
192,0.0
2,10, 1,10, 0,21, 0.00,60.00,Tuesday
143,821737363.172925
192,0.0
2,10, 1,10, 0,22, 0.00,60.00,Tuesday
143,832358805.3816023
192,0.0
2,10, 1,10, 0,23, 0.00,60.00,Tuesday
143,850802348.4602692
192,0.0
2,10, 1,10, 0,24, 0.00,60.00,Tuesday
143,875676549.7057995
192,0.0
2,11, 1,11, 0, 1, 0.00,60.00,Wednesday
143,901484184.3715925
192,0.0
2,11, 1,11, 0, 2, 0.00,60.00,Wednesday
143,916213701.7089248
192,0.0
2,11, 1,11, 0, 3, 0.00,60.00,Wednesday
143,925393125.8922045
192,0.0
2,11, 1,11, 0, 4, 0.00,60.00,Wednesday
143,935519596.7568834
192,0.0
2,11, 1,11, 0, 5, 0.00,60.00,Wednesday
143,945139054.8237417
192,0.0
2,11, 1,11, 0, 6, 0.00,60.00,Wednesday
143,954278445.6056305
192,0.0
2,11, 1,11, 0, 7, 0.00,60.00,Wednesday
143,964551162.5653044
192,0.0
2,11, 1,11, 0, 8, 0.00,60.00,Wednesday
143,965711719.829382
192,0.0
2,11, 1,11, 0, 9, 0.00,60.00,Wednesday
143,961475950.2690915
192,0.0
2,11, 1,11, 0,10, 0.00,60.00,Wednesday
143,951547140.738135
192,0.0
2,11, 1,11, 0,11, 0.00,60.00,Wednesday
143,908097577.2526262
192,0.0
2,11, 1,11, 0,12, 0.00,60.00,Wednesday
143,858876166.6349571
192,0.0
2,11, 1,11, 0,13, 0.00,60.00,Wednesday
143,829055794.5715832
192,0.0
2,11, 1,11, 0,14, 0.00,60.00,Wednesday
143,803728061.3859887
192,0.0
2,11, 1,11, 0,15, 0.00,60.00,Wednesday
143,788260872.7851672
192,0.0
2,11, 1,11, 0,16, 0.00,60.00,Wednesday
143,774954873.5369544
192,0.0
2,11, 1,11, 0,17, 0.00,60.00,Wednesday
143,767411406.4643923
192,0.0
2,11, 1,11, 0,18, 0.00,60.00,Wednesday
143,774864249.9871794
192,0.0
2,11, 1,11, 0,19, 0.00,60.00,Wednesday
143,782397024.5879006
192,0.0
2,11, 1,11, 0,20, 0.00,60.00,Wednesday
143,787270819.6447841
192,0.0
2,11, 1,11, 0,21, 0.00,60.00,Wednesday
143,790373879.5787791
192,0.0
2,11, 1,11, 0,22, 0.00,60.00,Wednesday
143,791328703.6099068
192,0.0
2,11, 1,11, 0,23, 0.00,60.00,Wednesday
143,790303625.1969614
192,0.0
2,11, 1,11, 0,24, 0.00,60.00,Wednesday
143,785484192.1431829
192,0.0
2,12, 1,12, 0, 1, 0.00,60.00,Thursday
143,768797390.2719979
192,0.0
2,12, 1,12, 0, 2, 0.00,60.00,Thursday
143,782157735.919687
192,0.0
2,12, 1,12, 0, 3, 0.00,60.00,Thursday
143,815784278.527199
192,0.0
2,12, 1,12, 0, 4, 0.00,60.00,Thursday
143,842952550.340788
192,0.0
2,12, 1,12, 0, 5, 0.00,60.00,Thursday
143,856601852.4611924
192,0.0
2,12, 1,12, 0, 6, 0.00,60.00,Thursday
143,863885470.4754908
192,0.0
2,12, 1,12, 0, 7, 0.00,60.00,Thursday
143,874552567.3715584
192,0.0
2,12, 1,12, 0, 8, 0.00,60.00,Thursday
143,880579151.0671604
192,0.0
2,12, 1,12, 0, 9, 0.00,60.00,Thursday
143,885408646.2762333
192,0.0
2,12, 1,12, 0,10, 0.00,60.00,Thursday
143,883828061.1973635
192,0.0
2,12, 1,12, 0,11, 0.00,60.00,Thursday
143,846703581.3987861
192,0.0
2,12, 1,12, 0,12, 0.00,60.00,Thursday
143,798943545.7872875
192,0.0
2,12, 1,12, 0,13, 0.00,60.00,Thursday
143,776607875.7616913
192,0.0
2,12, 1,12, 0,14, 0.00,60.00,Thursday
143,774889501.4407172
192,0.0
2,12, 1,12, 0,15, 0.00,60.00,Thursday
143,789827657.4966567
192,0.0
2,12, 1,12, 0,16, 0.00,60.00,Thursday
143,818560598.4536862
192,0.0
2,12, 1,12, 0,17, 0.00,60.00,Thursday
143,838710305.5724397
192,0.0
2,12, 1,12, 0,18, 0.00,60.00,Thursday
143,863445851.2716014
192,0.0
2,12, 1,12, 0,19, 0.00,60.00,Thursday
143,893919624.0521067
192,0.0
2,12, 1,12, 0,20, 0.00,60.00,Thursday
143,909069842.2965682
192,0.0
2,12, 1,12, 0,21, 0.00,60.00,Thursday
143,912073324.0783234
192,0.0
2,12, 1,12, 0,22, 0.00,60.00,Thursday
143,915338109.2395363
192,0.0
2,12, 1,12, 0,23, 0.00,60.00,Thursday
143,922221793.9087867
192,0.0
2,12, 1,12, 0,24, 0.00,60.00,Thursday
143,933437334.366124
192,0.0
2,13, 1,13, 0, 1, 0.00,60.00,Friday
143,945505323.1522247
192,0.0
2,13, 1,13, 0, 2, 0.00,60.00,Friday
143,953646138.9849494
192,0.0
2,13, 1,13, 0, 3, 0.00,60.00,Friday
143,959142390.1744571
192,0.0
2,13, 1,13, 0, 4, 0.00,60.00,Friday
143,971518423.491116
192,0.0
2,13, 1,13, 0, 5, 0.00,60.00,Friday
143,986444764.6313637
192,0.0
2,13, 1,13, 0, 6, 0.00,60.00,Friday
143,1004509322.1463192
192,0.0
2,13, 1,13, 0, 7, 0.00,60.00,Friday
143,1021727671.8640745
192,0.0
2,13, 1,13, 0, 8, 0.00,60.00,Friday
143,1030367162.8117977
192,0.0
2,13, 1,13, 0, 9, 0.00,60.00,Friday
143,1030603849.9552598
192,0.0
2,13, 1,13, 0,10, 0.00,60.00,Friday
143,1018950831.868383
192,0.0
2,13, 1,13, 0,11, 0.00,60.00,Friday
143,962675016.2572045
192,0.0
2,13, 1,13, 0,12, 0.00,60.00,Friday
143,898409730.790792
192,0.0
2,13, 1,13, 0,13, 0.00,60.00,Friday
143,858321569.2080129
192,0.0
2,13, 1,13, 0,14, 0.00,60.00,Friday
143,846957831.7246138
192,0.0
2,13, 1,13, 0,15, 0.00,60.00,Friday
143,863367879.2329311
192,0.0
2,13, 1,13, 0,16, 0.00,60.00,Friday
143,892547467.7711722
192,0.0
2,13, 1,13, 0,17, 0.00,60.00,Friday
143,913289334.578322
192,0.0
2,13, 1,13, 0,18, 0.00,60.00,Friday
143,938838775.7448821
192,0.0
2,13, 1,13, 0,19, 0.00,60.00,Friday
143,967849481.0566626
192,0.0
2,13, 1,13, 0,20, 0.00,60.00,Friday
143,977959562.550643
192,0.0
2,13, 1,13, 0,21, 0.00,60.00,Friday
143,972314376.2018062
192,0.0
2,13, 1,13, 0,22, 0.00,60.00,Friday
143,970305368.5747747
192,0.0
2,13, 1,13, 0,23, 0.00,60.00,Friday
143,959155717.2515029
192,0.0
2,13, 1,13, 0,24, 0.00,60.00,Friday
143,941615211.5505362
192,0.0
2,14, 1,14, 0, 1, 0.00,60.00,Saturday
143,921498512.4145303
192,0.0
2,14, 1,14, 0, 2, 0.00,60.00,Saturday
143,920324165.4276758
192,0.0
2,14, 1,14, 0, 3, 0.00,60.00,Saturday
143,940836645.0329397
192,0.0
2,14, 1,14, 0, 4, 0.00,60.00,Saturday
143,956290799.1947037
192,0.0
2,14, 1,14, 0, 5, 0.00,60.00,Saturday
143,966838667.3242142
192,0.0
2,14, 1,14, 0, 6, 0.00,60.00,Saturday
143,977860642.8181437
192,0.0
2,14, 1,14, 0, 7, 0.00,60.00,Saturday
143,989701646.6736233
192,0.0
2,14, 1,14, 0, 8, 0.00,60.00,Saturday
143,1001060646.9695959
192,0.0
2,14, 1,14, 0, 9, 0.00,60.00,Saturday
143,1012221180.8095635
192,0.0
2,14, 1,14, 0,10, 0.00,60.00,Saturday
143,1012191441.5129389
192,0.0
2,14, 1,14, 0,11, 0.00,60.00,Saturday
143,961281129.7445186
192,0.0
2,14, 1,14, 0,12, 0.00,60.00,Saturday
143,899133889.7047949
192,0.0
2,14, 1,14, 0,13, 0.00,60.00,Saturday
143,861687114.9343191
192,0.0
2,14, 1,14, 0,14, 0.00,60.00,Saturday
143,855921176.4062934
192,0.0
2,14, 1,14, 0,15, 0.00,60.00,Saturday
143,876185382.2928951
192,0.0
2,14, 1,14, 0,16, 0.00,60.00,Saturday
143,911241664.5396461
192,0.0
2,14, 1,14, 0,17, 0.00,60.00,Saturday
143,930279123.2497272
192,0.0
2,14, 1,14, 0,18, 0.00,60.00,Saturday
143,944859415.8347309
192,0.0
2,14, 1,14, 0,19, 0.00,60.00,Saturday
143,960153727.3190253
192,0.0
2,14, 1,14, 0,20, 0.00,60.00,Saturday
143,967310476.9859328
192,0.0
2,14, 1,14, 0,21, 0.00,60.00,Saturday
143,969429324.5352705
192,0.0
2,14, 1,14, 0,22, 0.00,60.00,Saturday
143,971738712.3784131
192,0.0
2,14, 1,14, 0,23, 0.00,60.00,Saturday
143,959674222.1277102
192,0.0
2,14, 1,14, 0,24, 0.00,60.00,Saturday
143,939510062.0408435
192,0.0
2,15, 1,15, 0, 1, 0.00,60.00,Sunday
143,916839202.03055
192,0.0
2,15, 1,15, 0, 2, 0.00,60.00,Sunday
143,906595997.5234562
192,0.0
2,15, 1,15, 0, 3, 0.00,60.00,Sunday
143,907986303.882442
192,0.0
2,15, 1,15, 0, 4, 0.00,60.00,Sunday
143,910716646.5245174
192,0.0
2,15, 1,15, 0, 5, 0.00,60.00,Sunday
143,912485904.6865358
192,0.0
2,15, 1,15, 0, 6, 0.00,60.00,Sunday
143,913269250.6123676
192,0.0
2,15, 1,15, 0, 7, 0.00,60.00,Sunday
143,914959155.020426
192,0.0
2,15, 1,15, 0, 8, 0.00,60.00,Sunday
143,922536662.468483
192,0.0
2,15, 1,15, 0, 9, 0.00,60.00,Sunday
143,935173103.982869
192,0.0
2,15, 1,15, 0,10, 0.00,60.00,Sunday
143,944075207.8611263
192,0.0
2,15, 1,15, 0,11, 0.00,60.00,Sunday
143,935066534.5703175
192,0.0
2,15, 1,15, 0,12, 0.00,60.00,Sunday
143,913492627.4842677
192,0.0
2,15, 1,15, 0,13, 0.00,60.00,Sunday
143,903773344.6724031
192,0.0
2,15, 1,15, 0,14, 0.00,60.00,Sunday
143,898955169.1318135
192,0.0
2,15, 1,15, 0,15, 0.00,60.00,Sunday
143,898026099.0628018
192,0.0
2,15, 1,15, 0,16, 0.00,60.00,Sunday
143,897636305.6468608
192,0.0
2,15, 1,15, 0,17, 0.00,60.00,Sunday
143,911306839.7987369
192,0.0
2,15, 1,15, 0,18, 0.00,60.00,Sunday
143,939139067.5134159
192,0.0
2,15, 1,15, 0,19, 0.00,60.00,Sunday
143,968283475.5616366
192,0.0
2,15, 1,15, 0,20, 0.00,60.00,Sunday
143,1000654888.4065613
192,0.0
2,15, 1,15, 0,21, 0.00,60.00,Sunday
143,1034201230.2330606
192,0.0
2,15, 1,15, 0,22, 0.00,60.00,Sunday
143,1065683135.5568237
192,0.0
2,15, 1,15, 0,23, 0.00,60.00,Sunday
143,1061891059.488232
192,0.0
2,15, 1,15, 0,24, 0.00,60.00,Sunday
143,1035154447.854002
192,0.0
2,16, 1,16, 0, 1, 0.00,60.00,Monday
143,1008250967.1073363
192,0.0
2,16, 1,16, 0, 2, 0.00,60.00,Monday
143,996678993.616043
192,0.0
2,16, 1,16, 0, 3, 0.00,60.00,Monday
143,989624370.8016729
192,0.0
2,16, 1,16, 0, 4, 0.00,60.00,Monday
143,982545230.8486102
192,0.0
2,16, 1,16, 0, 5, 0.00,60.00,Monday
143,985391450.9789722
192,0.0
2,16, 1,16, 0, 6, 0.00,60.00,Monday
143,990449080.8718163
192,0.0
2,16, 1,16, 0, 7, 0.00,60.00,Monday
143,996172774.6513298
192,0.0
2,16, 1,16, 0, 8, 0.00,60.00,Monday
143,982090107.9242862
192,0.0
2,16, 1,16, 0, 9, 0.00,60.00,Monday
143,954628319.1441703
192,0.0
2,16, 1,16, 0,10, 0.00,60.00,Monday
143,931654676.9428253
192,0.0
2,16, 1,16, 0,11, 0.00,60.00,Monday
143,905344855.173739
192,0.0
2,16, 1,16, 0,12, 0.00,60.00,Monday
143,879159339.6425141
192,0.0
2,16, 1,16, 0,13, 0.00,60.00,Monday
143,857595803.5972756
192,0.0
2,16, 1,16, 0,14, 0.00,60.00,Monday
143,849488668.752056
192,0.0
2,16, 1,16, 0,15, 0.00,60.00,Monday
143,850145403.5801663
192,0.0
2,16, 1,16, 0,16, 0.00,60.00,Monday
143,853730312.3739007
192,0.0
2,16, 1,16, 0,17, 0.00,60.00,Monday
143,857759657.8271525
192,0.0
2,16, 1,16, 0,18, 0.00,60.00,Monday
143,856719956.3736465
192,0.0
2,16, 1,16, 0,19, 0.00,60.00,Monday
143,855410107.9472936
192,0.0
2,16, 1,16, 0,20, 0.00,60.00,Monday
143,855532048.1462
192,0.0
2,16, 1,16, 0,21, 0.00,60.00,Monday
143,853382698.4937868
192,0.0
2,16, 1,16, 0,22, 0.00,60.00,Monday
143,851166343.5403593
192,0.0
2,16, 1,16, 0,23, 0.00,60.00,Monday
143,849655417.4031274
192,0.0
2,16, 1,16, 0,24, 0.00,60.00,Monday
143,849489535.5750337
192,0.0
2,17, 1,17, 0, 1, 0.00,60.00,Tuesday
143,849489905.744831
192,0.0
2,17, 1,17, 0, 2, 0.00,60.00,Tuesday
143,853960190.5828544
192,0.0
2,17, 1,17, 0, 3, 0.00,60.00,Tuesday
143,861664203.4812969
192,0.0
2,17, 1,17, 0, 4, 0.00,60.00,Tuesday
143,869894939.9215467
192,0.0
2,17, 1,17, 0, 5, 0.00,60.00,Tuesday
143,879259959.318127
192,0.0
2,17, 1,17, 0, 6, 0.00,60.00,Tuesday
143,889530221.2440678
192,0.0
2,17, 1,17, 0, 7, 0.00,60.00,Tuesday
143,899821087.9536703
192,0.0
2,17, 1,17, 0, 8, 0.00,60.00,Tuesday
143,904117329.4817369
192,0.0
2,17, 1,17, 0, 9, 0.00,60.00,Tuesday
143,902142230.6851653
192,0.0
2,17, 1,17, 0,10, 0.00,60.00,Tuesday
143,895891492.5430243
192,0.0
2,17, 1,17, 0,11, 0.00,60.00,Tuesday
143,878808461.9304368
192,0.0
2,17, 1,17, 0,12, 0.00,60.00,Tuesday
143,858989651.6507913
192,0.0
2,17, 1,17, 0,13, 0.00,60.00,Tuesday
143,842638634.6808797
192,0.0
2,17, 1,17, 0,14, 0.00,60.00,Tuesday
143,833003182.5348538
192,0.0
2,17, 1,17, 0,15, 0.00,60.00,Tuesday
143,829070276.6174195
192,0.0
2,17, 1,17, 0,16, 0.00,60.00,Tuesday
143,827619736.0922127
192,0.0
2,17, 1,17, 0,17, 0.00,60.00,Tuesday
143,821066918.3333987
192,0.0
2,17, 1,17, 0,18, 0.00,60.00,Tuesday
143,810495397.3630993
192,0.0
2,17, 1,17, 0,19, 0.00,60.00,Tuesday
143,799475969.1421523
192,0.0
2,17, 1,17, 0,20, 0.00,60.00,Tuesday
143,789310701.3408076
192,0.0
2,17, 1,17, 0,21, 0.00,60.00,Tuesday
143,790700814.8701798
192,0.0
2,17, 1,17, 0,22, 0.00,60.00,Tuesday
143,789834327.4820435
192,0.0
2,17, 1,17, 0,23, 0.00,60.00,Tuesday
143,785365609.3399768
192,0.0
2,17, 1,17, 0,24, 0.00,60.00,Tuesday
143,783068660.1199651
192,0.0
2,18, 1,18, 0, 1, 0.00,60.00,Wednesday
143,781079706.6136538
192,0.0
2,18, 1,18, 0, 2, 0.00,60.00,Wednesday
143,771593421.1000147
192,0.0
2,18, 1,18, 0, 3, 0.00,60.00,Wednesday
143,763279391.1776226
192,0.0
2,18, 1,18, 0, 4, 0.00,60.00,Wednesday
143,761482081.586761
192,0.0
2,18, 1,18, 0, 5, 0.00,60.00,Wednesday
143,759759191.9842024
192,0.0
2,18, 1,18, 0, 6, 0.00,60.00,Wednesday
143,758480837.4798976
192,0.0
2,18, 1,18, 0, 7, 0.00,60.00,Wednesday
143,758133517.8105464
192,0.0
2,18, 1,18, 0, 8, 0.00,60.00,Wednesday
143,750243740.2413119
192,0.0
2,18, 1,18, 0, 9, 0.00,60.00,Wednesday
143,737007014.4400789
192,0.0
2,18, 1,18, 0,10, 0.00,60.00,Wednesday
143,718290718.4218365
192,0.0
2,18, 1,18, 0,11, 0.00,60.00,Wednesday
143,691248427.5272273
192,0.0
2,18, 1,18, 0,12, 0.00,60.00,Wednesday
143,668115898.2621913
192,0.0
2,18, 1,18, 0,13, 0.00,60.00,Wednesday
143,647638812.3348138
192,0.0
2,18, 1,18, 0,14, 0.00,60.00,Wednesday
143,644623307.4434675
192,0.0
2,18, 1,18, 0,15, 0.00,60.00,Wednesday
143,645910599.439954
192,0.0
2,18, 1,18, 0,16, 0.00,60.00,Wednesday
143,648973376.8101808
192,0.0
2,18, 1,18, 0,17, 0.00,60.00,Wednesday
143,653273785.1305723
192,0.0
2,18, 1,18, 0,18, 0.00,60.00,Wednesday
143,655305218.2893546
192,0.0
2,18, 1,18, 0,19, 0.00,60.00,Wednesday
143,656540924.5516735
192,0.0
2,18, 1,18, 0,20, 0.00,60.00,Wednesday
143,658985197.8930519
192,0.0
2,18, 1,18, 0,21, 0.00,60.00,Wednesday
143,662828733.7334754
192,0.0
2,18, 1,18, 0,22, 0.00,60.00,Wednesday
143,667232566.2311437
192,0.0
2,18, 1,18, 0,23, 0.00,60.00,Wednesday
143,666674295.5454476
192,0.0
2,18, 1,18, 0,24, 0.00,60.00,Wednesday
143,660825647.9869952
192,0.0
2,19, 1,19, 0, 1, 0.00,60.00,Thursday
143,657309959.3467075
192,0.0
2,19, 1,19, 0, 2, 0.00,60.00,Thursday
143,656843346.8513241
192,0.0
2,19, 1,19, 0, 3, 0.00,60.00,Thursday
143,655425197.0461241
192,0.0
2,19, 1,19, 0, 4, 0.00,60.00,Thursday
143,653967948.903779
192,0.0
2,19, 1,19, 0, 5, 0.00,60.00,Thursday
143,652258298.4791833
192,0.0
2,19, 1,19, 0, 6, 0.00,60.00,Thursday
143,648706852.414055
192,0.0
2,19, 1,19, 0, 7, 0.00,60.00,Thursday
143,645684147.2611392
192,0.0