Program Version,EnergyPlus, Version 24.1.0-9d7789a3ac, YMD=2025.04.30 08:58
1,5,Environment Title[],Latitude[deg],Longitude[deg],Time Zone[],Elevation[m]
2,8,Day of Simulation[],Month[],Day of Month[],DST Indicator[1=yes 0=no],Hour[],StartMinute[],EndMinute[],DayType
3,5,Cumulative Day of Simulation[],Month[],Day of Month[],DST Indicator[1=yes 0=no],DayType  ! When Daily Report Variables Requested
4,2,Cumulative Days of Simulation[],Month[]  ! When Monthly Report Variables Requested
5,1,Cumulative Days of Simulation[] ! When Run Period Report Variables Requested
6,1,Calendar Year of Simulation[] ! When Annual Report Variables Requested
192,1,DistrictCooling:Facility [J] !Hourly
143,1,DistrictHeatingWater:Facility [J] !Hourly
End of Data Dictionary
1,RUN PERIOD 1,  59.90,  10.62,   1.00,  17.00
2,1, 1, 1, 0, 1, 0.00,60.00,Sunday
143,817807794.5934036
192,0.0
2,1, 1, 1, 0, 2, 0.00,60.00,Sunday
143,889114087.1370877
192,0.0
2,1, 1, 1, 0, 3, 0.00,60.00,Sunday
143,848638406.5421152
192,0.0
2,1, 1, 1, 0, 4, 0.00,60.00,Sunday
143,815734709.6566721
192,0.0
2,1, 1, 1, 0, 5, 0.00,60.00,Sunday
143,793794207.4111575
192,0.0
2,1, 1, 1, 0, 6, 0.00,60.00,Sunday
143,781015136.5645489
192,0.0
2,1, 1, 1, 0, 7, 0.00,60.00,Sunday
143,777283176.9257212
192,0.0
2,1, 1, 1, 0, 8, 0.00,60.00,Sunday
143,774226556.9810958
192,0.0
2,1, 1, 1, 0, 9, 0.00,60.00,Sunday
143,766232951.489996
192,0.0
2,1, 1, 1, 0,10, 0.00,60.00,Sunday
143,1079816694.81572
192,0.0
2,1, 1, 1, 0,11, 0.00,60.00,Sunday
143,984077877.208514
192,0.0
2,1, 1, 1, 0,12, 0.00,60.00,Sunday
143,739859579.2005489
192,0.0
2,1, 1, 1, 0,13, 0.00,60.00,Sunday
143,727054580.8471384
192,0.0
2,1, 1, 1, 0,14, 0.00,60.00,Sunday
143,724303934.478118
192,0.0
2,1, 1, 1, 0,15, 0.00,60.00,Sunday
143,727239379.4687254
192,0.0
2,1, 1, 1, 0,16, 0.00,60.00,Sunday
143,730318500.3382081
192,0.0
2,1, 1, 1, 0,17, 0.00,60.00,Sunday
143,730757868.3437222
192,0.0
2,1, 1, 1, 0,18, 0.00,60.00,Sunday
143,728659875.1885414
192,0.0
2,1, 1, 1, 0,19, 0.00,60.00,Sunday
143,725433514.1037397
192,0.0
2,1, 1, 1, 0,20, 0.00,60.00,Sunday
143,721032776.1941552
192,0.0
2,1, 1, 1, 0,21, 0.00,60.00,Sunday
143,715665688.2223104
192,0.0
2,1, 1, 1, 0,22, 0.00,60.00,Sunday
143,709964141.6895031
192,0.0
2,1, 1, 1, 0,23, 0.00,60.00,Sunday
143,703192555.0321026
192,0.0
2,1, 1, 1, 0,24, 0.00,60.00,Sunday
143,696168759.1832975
192,0.0
2,2, 1, 2, 0, 1, 0.00,60.00,Monday
143,689458196.6176816
192,0.0
2,2, 1, 2, 0, 2, 0.00,60.00,Monday
143,680255960.8639777
192,0.0
2,2, 1, 2, 0, 3, 0.00,60.00,Monday
143,680415570.0389546
192,0.0
2,2, 1, 2, 0, 4, 0.00,60.00,Monday
143,678488352.0266508
192,0.0
2,2, 1, 2, 0, 5, 0.00,60.00,Monday
143,681328227.1159811
192,0.0
2,2, 1, 2, 0, 6, 0.00,60.00,Monday
143,685831149.2437612
192,0.0
2,2, 1, 2, 0, 7, 0.00,60.00,Monday
143,688895396.6336088
192,0.0
2,2, 1, 2, 0, 8, 0.00,60.00,Monday
143,693761515.8890743
192,0.0
2,2, 1, 2, 0, 9, 0.00,60.00,Monday
143,699080414.2441343
192,0.0
2,2, 1, 2, 0,10, 0.00,60.00,Monday
143,702463174.7852074
192,0.0
2,2, 1, 2, 0,11, 0.00,60.00,Monday
143,698749926.5617328
192,0.0
2,2, 1, 2, 0,12, 0.00,60.00,Monday
143,690224822.099475
192,0.0
2,2, 1, 2, 0,13, 0.00,60.00,Monday
143,683955902.2015995
192,0.0
2,2, 1, 2, 0,14, 0.00,60.00,Monday
143,675548794.6812835
192,0.0
2,2, 1, 2, 0,15, 0.00,60.00,Monday
143,661820032.6229866
192,0.0
2,2, 1, 2, 0,16, 0.00,60.00,Monday
143,647007864.4081411
192,0.0
2,2, 1, 2, 0,17, 0.00,60.00,Monday
143,641027956.5786529
192,0.0
2,2, 1, 2, 0,18, 0.00,60.00,Monday
143,643292413.3343762
192,0.0
2,2, 1, 2, 0,19, 0.00,60.00,Monday
143,645804820.4276297
192,0.0
2,2, 1, 2, 0,20, 0.00,60.00,Monday
143,653594877.1764617
192,0.0
2,2, 1, 2, 0,21, 0.00,60.00,Monday
143,657471421.9335351
192,0.0
2,2, 1, 2, 0,22, 0.00,60.00,Monday
143,659705061.6402977
192,0.0
2,2, 1, 2, 0,23, 0.00,60.00,Monday
143,689346387.1439271
192,0.0
2,2, 1, 2, 0,24, 0.00,60.00,Monday
143,736187863.5276067
192,0.0
2,3, 1, 3, 0, 1, 0.00,60.00,Tuesday
143,780689393.1020472
192,0.0
2,3, 1, 3, 0, 2, 0.00,60.00,Tuesday
143,789601117.7754742
192,0.0
2,3, 1, 3, 0, 3, 0.00,60.00,Tuesday
143,768068444.621807
192,0.0
2,3, 1, 3, 0, 4, 0.00,60.00,Tuesday
143,740419668.8002517
192,0.0
2,3, 1, 3, 0, 5, 0.00,60.00,Tuesday
143,730432097.8482378
192,0.0
2,3, 1, 3, 0, 6, 0.00,60.00,Tuesday
143,733178265.7870171
192,0.0
2,3, 1, 3, 0, 7, 0.00,60.00,Tuesday
143,736068532.8166804
192,0.0
2,3, 1, 3, 0, 8, 0.00,60.00,Tuesday
143,738731340.8777328
192,0.0
2,3, 1, 3, 0, 9, 0.00,60.00,Tuesday
143,740649017.9459217
192,0.0
2,3, 1, 3, 0,10, 0.00,60.00,Tuesday
143,741935396.1740282
192,0.0
2,3, 1, 3, 0,11, 0.00,60.00,Tuesday
143,716395954.5669402
192,0.0
2,3, 1, 3, 0,12, 0.00,60.00,Tuesday
143,681975899.9146968
192,0.0
2,3, 1, 3, 0,13, 0.00,60.00,Tuesday
143,654411368.8555979
192,0.0
2,3, 1, 3, 0,14, 0.00,60.00,Tuesday
143,651182225.1305162
192,0.0
2,3, 1, 3, 0,15, 0.00,60.00,Tuesday
143,672608784.1909117
192,0.0
2,3, 1, 3, 0,16, 0.00,60.00,Tuesday
143,696194407.2870318
192,0.0
2,3, 1, 3, 0,17, 0.00,60.00,Tuesday
143,705952917.2422016
192,0.0
2,3, 1, 3, 0,18, 0.00,60.00,Tuesday
143,714900522.6267035
192,0.0
2,3, 1, 3, 0,19, 0.00,60.00,Tuesday
143,721618424.1086601
192,0.0
2,3, 1, 3, 0,20, 0.00,60.00,Tuesday
143,733931812.8979889
192,0.0
2,3, 1, 3, 0,21, 0.00,60.00,Tuesday
143,753545566.8716238
192,0.0
2,3, 1, 3, 0,22, 0.00,60.00,Tuesday
143,775239766.4630678
192,0.0
2,3, 1, 3, 0,23, 0.00,60.00,Tuesday
143,794000125.3049166
192,0.0
2,3, 1, 3, 0,24, 0.00,60.00,Tuesday
143,809677503.6609191
192,0.0
2,4, 1, 4, 0, 1, 0.00,60.00,Wednesday
143,826556055.8733898
192,0.0
2,4, 1, 4, 0, 2, 0.00,60.00,Wednesday
143,823365046.8663473
192,0.0
2,4, 1, 4, 0, 3, 0.00,60.00,Wednesday
143,804912469.3348116
192,0.0
2,4, 1, 4, 0, 4, 0.00,60.00,Wednesday
143,789080159.1639036
192,0.0
2,4, 1, 4, 0, 5, 0.00,60.00,Wednesday
143,772582969.9405184
192,0.0
2,4, 1, 4, 0, 6, 0.00,60.00,Wednesday
143,752511442.5456839
192,0.0
2,4, 1, 4, 0, 7, 0.00,60.00,Wednesday
143,731451039.7682819
192,0.0
2,4, 1, 4, 0, 8, 0.00,60.00,Wednesday
143,725143222.7394899
192,0.0
2,4, 1, 4, 0, 9, 0.00,60.00,Wednesday
143,738038999.8954778
192,0.0
2,4, 1, 4, 0,10, 0.00,60.00,Wednesday
143,736428526.2783235
192,0.0
2,4, 1, 4, 0,11, 0.00,60.00,Wednesday
143,711881009.7158298
192,0.0
2,4, 1, 4, 0,12, 0.00,60.00,Wednesday
143,672664394.5484698
192,0.0
2,4, 1, 4, 0,13, 0.00,60.00,Wednesday
143,645896092.5415576
192,0.0
2,4, 1, 4, 0,14, 0.00,60.00,Wednesday
143,638348225.7349346
192,0.0
2,4, 1, 4, 0,15, 0.00,60.00,Wednesday
143,643148550.734346
192,0.0
2,4, 1, 4, 0,16, 0.00,60.00,Wednesday
143,655085821.5913861
192,0.0
2,4, 1, 4, 0,17, 0.00,60.00,Wednesday
143,659811810.652615
192,0.0
2,4, 1, 4, 0,18, 0.00,60.00,Wednesday
143,659064369.7299833
192,0.0
2,4, 1, 4, 0,19, 0.00,60.00,Wednesday
143,659966115.7320737
192,0.0
2,4, 1, 4, 0,20, 0.00,60.00,Wednesday
143,660122194.0170308
192,0.0
2,4, 1, 4, 0,21, 0.00,60.00,Wednesday
143,659889291.5401964
192,0.0
2,4, 1, 4, 0,22, 0.00,60.00,Wednesday
143,659570315.9299552
192,0.0
2,4, 1, 4, 0,23, 0.00,60.00,Wednesday
143,664390481.8317491
192,0.0
2,4, 1, 4, 0,24, 0.00,60.00,Wednesday
143,674887558.6308509
192,0.0
2,5, 1, 5, 0, 1, 0.00,60.00,Thursday
143,689353913.4538436
192,0.0
2,5, 1, 5, 0, 2, 0.00,60.00,Thursday
143,697372294.0817286
192,0.0
2,5, 1, 5, 0, 3, 0.00,60.00,Thursday
143,698511332.732345
192,0.0
2,5, 1, 5, 0, 4, 0.00,60.00,Thursday
143,702498698.2790997
192,0.0
2,5, 1, 5, 0, 5, 0.00,60.00,Thursday
143,700093073.1512951
192,0.0
2,5, 1, 5, 0, 6, 0.00,60.00,Thursday
143,691918245.6927867
192,0.0
2,5, 1, 5, 0, 7, 0.00,60.00,Thursday
143,684431499.9128876
192,0.0
2,5, 1, 5, 0, 8, 0.00,60.00,Thursday
143,685437750.742836
192,0.0
2,5, 1, 5, 0, 9, 0.00,60.00,Thursday
143,691510680.1104139
192,0.0
2,5, 1, 5, 0,10, 0.00,60.00,Thursday
143,685416979.8562815
192,0.0
2,5, 1, 5, 0,11, 0.00,60.00,Thursday
143,664240738.712266
192,0.0
2,5, 1, 5, 0,12, 0.00,60.00,Thursday
143,643456388.1569705
192,0.0
2,5, 1, 5, 0,13, 0.00,60.00,Thursday
143,629040463.8986776
192,0.0
2,5, 1, 5, 0,14, 0.00,60.00,Thursday
143,636146727.3946528
192,0.0
2,5, 1, 5, 0,15, 0.00,60.00,Thursday
143,656444115.4357835
192,0.0
2,5, 1, 5, 0,16, 0.00,60.00,Thursday
143,675596983.219384
192,0.0
2,5, 1, 5, 0,17, 0.00,60.00,Thursday
143,678702565.9280753
192,0.0
2,5, 1, 5, 0,18, 0.00,60.00,Thursday
143,669201259.1975057
192,0.0
2,5, 1, 5, 0,19, 0.00,60.00,Thursday
143,800676194.8168702
192,0.0
2,5, 1, 5, 0,20, 0.00,60.00,Thursday
143,770948116.9941653
192,0.0
2,5, 1, 5, 0,21, 0.00,60.00,Thursday
143,666166652.6570405
192,0.0
2,5, 1, 5, 0,22, 0.00,60.00,Thursday
143,679395812.6568428
192,0.0
2,5, 1, 5, 0,23, 0.00,60.00,Thursday
143,680835666.3189156
192,0.0
2,5, 1, 5, 0,24, 0.00,60.00,Thursday
143,677775987.6529621
192,0.0
2,6, 1, 6, 0, 1, 0.00,60.00,Friday
143,673095196.3238747
192,0.0
2,6, 1, 6, 0, 2, 0.00,60.00,Friday
143,665514108.7386374
192,0.0
2,6, 1, 6, 0, 3, 0.00,60.00,Friday
143,654877985.4059002
192,0.0
2,6, 1, 6, 0, 4, 0.00,60.00,Friday
143,643474708.1554437
192,0.0
2,6, 1, 6, 0, 5, 0.00,60.00,Friday
143,645038914.7043637
192,0.0
2,6, 1, 6, 0, 6, 0.00,60.00,Friday
143,652076066.9889276
192,0.0
2,6, 1, 6, 0, 7, 0.00,60.00,Friday
143,657192873.0181694
192,0.0
2,6, 1, 6, 0, 8, 0.00,60.00,Friday
143,657841696.8591049
192,0.0
2,6, 1, 6, 0, 9, 0.00,60.00,Friday
143,652562453.1512268
192,0.0
2,6, 1, 6, 0,10, 0.00,60.00,Friday
143,646027028.7723594
192,0.0
2,6, 1, 6, 0,11, 0.00,60.00,Friday
143,639288677.872153
192,0.0
2,6, 1, 6, 0,12, 0.00,60.00,Friday
143,643177153.8619752
192,0.0
2,6, 1, 6, 0,13, 0.00,60.00,Friday
143,813212326.5193014
192,0.0
2,6, 1, 6, 0,14, 0.00,60.00,Friday
143,778981628.6457993
192,0.0
2,6, 1, 6, 0,15, 0.00,60.00,Friday
143,651456380.4855745
192,0.0
2,6, 1, 6, 0,16, 0.00,60.00,Friday
143,820004286.4174838
192,0.0
2,6, 1, 6, 0,17, 0.00,60.00,Friday
143,780899752.0389618
192,0.0
2,6, 1, 6, 0,18, 0.00,60.00,Friday
143,638396667.959347
192,0.0
2,6, 1, 6, 0,19, 0.00,60.00,Friday
143,827394702.5350324
192,0.0
2,6, 1, 6, 0,20, 0.00,60.00,Friday
143,781599965.8888547
192,0.0
2,6, 1, 6, 0,21, 0.00,60.00,Friday
143,633660003.706596
192,0.0
2,6, 1, 6, 0,22, 0.00,60.00,Friday
143,839080312.3592923
192,0.0
2,6, 1, 6, 0,23, 0.00,60.00,Friday
143,802289598.5193503
192,0.0
2,6, 1, 6, 0,24, 0.00,60.00,Friday
143,667214024.5592289
192,0.0
2,7, 1, 7, 0, 1, 0.00,60.00,Saturday
143,681052564.3068516
192,0.0
2,7, 1, 7, 0, 2, 0.00,60.00,Saturday
143,685294657.0176852
192,0.0
2,7, 1, 7, 0, 3, 0.00,60.00,Saturday
143,682320019.9147
192,0.0
2,7, 1, 7, 0, 4, 0.00,60.00,Saturday
143,681044313.7807152
192,0.0
2,7, 1, 7, 0, 5, 0.00,60.00,Saturday
143,679473859.9161875
192,0.0
2,7, 1, 7, 0, 6, 0.00,60.00,Saturday
143,678673337.0204145
192,0.0
2,7, 1, 7, 0, 7, 0.00,60.00,Saturday
143,680545407.0487982
192,0.0
2,7, 1, 7, 0, 8, 0.00,60.00,Saturday
143,682702616.0475526
192,0.0
2,7, 1, 7, 0, 9, 0.00,60.00,Saturday
143,689217680.2464254
192,0.0
2,7, 1, 7, 0,10, 0.00,60.00,Saturday
143,692764700.3933581
192,0.0
2,7, 1, 7, 0,11, 0.00,60.00,Saturday
143,671460695.6443901
192,0.0
2,7, 1, 7, 0,12, 0.00,60.00,Saturday
143,650375668.1454098
192,0.0
2,7, 1, 7, 0,13, 0.00,60.00,Saturday
143,642486338.7138231
192,0.0
2,7, 1, 7, 0,14, 0.00,60.00,Saturday
143,648570006.519518
192,0.0
2,7, 1, 7, 0,15, 0.00,60.00,Saturday
143,662650436.6812589
192,0.0
2,7, 1, 7, 0,16, 0.00,60.00,Saturday
143,677146999.8219879
192,0.0
2,7, 1, 7, 0,17, 0.00,60.00,Saturday
143,686009165.58237
192,0.0
2,7, 1, 7, 0,18, 0.00,60.00,Saturday
143,684856769.6844504
192,0.0
2,7, 1, 7, 0,19, 0.00,60.00,Saturday
143,680964192.030863
192,0.0
2,7, 1, 7, 0,20, 0.00,60.00,Saturday
143,676677323.2986422
192,0.0
2,7, 1, 7, 0,21, 0.00,60.00,Saturday
143,667293076.7724853
192,0.0
2,7, 1, 7, 0,22, 0.00,60.00,Saturday
143,660440241.156107
192,0.0
2,7, 1, 7, 0,23, 0.00,60.00,Saturday
143,659928840.1059033
192,0.0
2,7, 1, 7, 0,24, 0.00,60.00,Saturday
143,662334278.1077244
192,0.0
2,8, 1, 8, 0, 1, 0.00,60.00,Sunday
143,665371397.7032337
192,0.0
2,8, 1, 8, 0, 2, 0.00,60.00,Sunday
143,667969514.2223605
192,0.0
2,8, 1, 8, 0, 3, 0.00,60.00,Sunday
143,668119026.8524464
192,0.0
2,8, 1, 8, 0, 4, 0.00,60.00,Sunday
143,669102589.4811368
192,0.0
2,8, 1, 8, 0, 5, 0.00,60.00,Sunday
143,672423169.0481805
192,0.0
2,8, 1, 8, 0, 6, 0.00,60.00,Sunday
143,675906700.7309625
192,0.0
2,8, 1, 8, 0, 7, 0.00,60.00,Sunday
143,679644237.0279986
192,0.0
2,8, 1, 8, 0, 8, 0.00,60.00,Sunday
143,689653544.8520738
192,0.0
2,8, 1, 8, 0, 9, 0.00,60.00,Sunday
143,704289951.7825898
192,0.0
2,8, 1, 8, 0,10, 0.00,60.00,Sunday
143,717596719.8306793
192,0.0
2,8, 1, 8, 0,11, 0.00,60.00,Sunday
143,708829843.1741343
192,0.0
2,8, 1, 8, 0,12, 0.00,60.00,Sunday
143,685349852.6104963
192,0.0
2,8, 1, 8, 0,13, 0.00,60.00,Sunday
143,664528951.4281015
192,0.0
2,8, 1, 8, 0,14, 0.00,60.00,Sunday
143,667109433.8459151
192,0.0
2,8, 1, 8, 0,15, 0.00,60.00,Sunday
143,687051158.0310684
192,0.0
2,8, 1, 8, 0,16, 0.00,60.00,Sunday
143,709697528.1217098
192,0.0
2,8, 1, 8, 0,17, 0.00,60.00,Sunday
143,724063360.126512
192,0.0
2,8, 1, 8, 0,18, 0.00,60.00,Sunday
143,734561673.8848869
192,0.0
2,8, 1, 8, 0,19, 0.00,60.00,Sunday
143,741510635.4764075
192,0.0
2,8, 1, 8, 0,20, 0.00,60.00,Sunday
143,748894134.2878904
192,0.0
2,8, 1, 8, 0,21, 0.00,60.00,Sunday
143,757701501.2426583
192,0.0
2,8, 1, 8, 0,22, 0.00,60.00,Sunday
143,767891979.2950786
192,0.0
2,8, 1, 8, 0,23, 0.00,60.00,Sunday
143,780209497.300813
192,0.0
2,8, 1, 8, 0,24, 0.00,60.00,Sunday
143,793194790.8930708
192,0.0
2,9, 1, 9, 0, 1, 0.00,60.00,Monday
143,804940588.3696356
192,0.0
2,9, 1, 9, 0, 2, 0.00,60.00,Monday
143,808877579.5785409
192,0.0
2,9, 1, 9, 0, 3, 0.00,60.00,Monday
143,814516592.0579718
192,0.0
2,9, 1, 9, 0, 4, 0.00,60.00,Monday
143,819567978.5849072
192,0.0
2,9, 1, 9, 0, 5, 0.00,60.00,Monday
143,823349626.6528351
192,0.0
2,9, 1, 9, 0, 6, 0.00,60.00,Monday
143,827112688.1979821
192,0.0
2,9, 1, 9, 0, 7, 0.00,60.00,Monday
143,825995519.1177108
192,0.0
2,9, 1, 9, 0, 8, 0.00,60.00,Monday
143,826914761.4096406
192,0.0
2,9, 1, 9, 0, 9, 0.00,60.00,Monday
143,825787917.6198368
192,0.0
2,9, 1, 9, 0,10, 0.00,60.00,Monday
143,823658139.4098974
192,0.0
2,9, 1, 9, 0,11, 0.00,60.00,Monday
143,797324579.9994603
192,0.0
2,9, 1, 9, 0,12, 0.00,60.00,Monday
143,749586953.033188
192,0.0
2,9, 1, 9, 0,13, 0.00,60.00,Monday
143,695263728.2293146
192,0.0
2,9, 1, 9, 0,14, 0.00,60.00,Monday
143,677064937.096841
192,0.0
2,9, 1, 9, 0,15, 0.00,60.00,Monday
143,697307047.6132149
192,0.0
2,9, 1, 9, 0,16, 0.00,60.00,Monday
143,724809595.0453393
192,0.0
2,9, 1, 9, 0,17, 0.00,60.00,Monday
143,734100608.5642972
192,0.0
2,9, 1, 9, 0,18, 0.00,60.00,Monday
143,729636243.8772087
192,0.0
2,9, 1, 9, 0,19, 0.00,60.00,Monday
143,724564074.7412543
192,0.0
2,9, 1, 9, 0,20, 0.00,60.00,Monday
143,745362443.0865995
192,0.0
2,9, 1, 9, 0,21, 0.00,60.00,Monday
143,777057873.946959
192,0.0
2,9, 1, 9, 0,22, 0.00,60.00,Monday
143,805877977.8039576
192,0.0
2,9, 1, 9, 0,23, 0.00,60.00,Monday
143,832073706.8593131
192,0.0
2,9, 1, 9, 0,24, 0.00,60.00,Monday
143,860280505.2673562
192,0.0
2,10, 1,10, 0, 1, 0.00,60.00,Tuesday
143,886739577.9735012
192,0.0
2,10, 1,10, 0, 2, 0.00,60.00,Tuesday
143,890888477.7173152
192,0.0
2,10, 1,10, 0, 3, 0.00,60.00,Tuesday
143,877285295.0012355
192,0.0
2,10, 1,10, 0, 4, 0.00,60.00,Tuesday
143,864096377.5688568
192,0.0
2,10, 1,10, 0, 5, 0.00,60.00,Tuesday
143,852126526.798488
192,0.0
2,10, 1,10, 0, 6, 0.00,60.00,Tuesday
143,840090084.9387398
192,0.0
2,10, 1,10, 0, 7, 0.00,60.00,Tuesday
143,821454531.0648404
192,0.0
2,10, 1,10, 0, 8, 0.00,60.00,Tuesday
143,817503609.0806372
192,0.0
2,10, 1,10, 0, 9, 0.00,60.00,Tuesday
143,822907060.8864179
192,0.0
2,10, 1,10, 0,10, 0.00,60.00,Tuesday
143,825927421.7591183
192,0.0
2,10, 1,10, 0,11, 0.00,60.00,Tuesday
143,816051588.8966725
192,0.0
2,10, 1,10, 0,12, 0.00,60.00,Tuesday
143,796961502.3427641
192,0.0
2,10, 1,10, 0,13, 0.00,60.00,Tuesday
143,780761310.1537784
192,0.0
2,10, 1,10, 0,14, 0.00,60.00,Tuesday
143,772594381.6090027
192,0.0
2,10, 1,10, 0,15, 0.00,60.00,Tuesday
143,771832039.521259
192,0.0
2,10, 1,10, 0,16, 0.00,60.00,Tuesday
143,769834475.3020604
192,0.0
2,10, 1,10, 0,17, 0.00,60.00,Tuesday
143,773141778.307588
192,0.0
2,10, 1,10, 0,18, 0.00,60.00,Tuesday
143,785233491.2851795
192,0.0
2,10, 1,10, 0,19, 0.00,60.00,Tuesday
143,799750444.1285424
192,0.0
2,10, 1,10, 0,20, 0.00,60.00,Tuesday
143,812466850.6706994
192,0.0
2,10, 1,10, 0,21, 0.00,60.00,Tuesday
143,821743134.2569294
192,0.0
2,10, 1,10, 0,22, 0.00,60.00,Tuesday
143,832364299.4265428
192,0.0
2,10, 1,10, 0,23, 0.00,60.00,Tuesday
143,850807791.351702
192,0.0
2,10, 1,10, 0,24, 0.00,60.00,Tuesday
143,875681951.0322572
192,0.0
2,11, 1,11, 0, 1, 0.00,60.00,Wednesday
143,901489594.9601948
192,0.0
2,11, 1,11, 0, 2, 0.00,60.00,Wednesday
143,916219070.4744183
192,0.0
2,11, 1,11, 0, 3, 0.00,60.00,Wednesday
143,925398443.4758515
192,0.0
2,11, 1,11, 0, 4, 0.00,60.00,Wednesday
143,935524847.5350667
192,0.0
2,11, 1,11, 0, 5, 0.00,60.00,Wednesday
143,945144289.6213192
192,0.0
2,11, 1,11, 0, 6, 0.00,60.00,Wednesday
143,954283688.8175304
192,0.0
2,11, 1,11, 0, 7, 0.00,60.00,Wednesday
143,964556371.3957698
192,0.0
2,11, 1,11, 0, 8, 0.00,60.00,Wednesday
143,965716924.9844767
192,0.0
2,11, 1,11, 0, 9, 0.00,60.00,Wednesday
143,961481160.3930933
192,0.0
2,11, 1,11, 0,10, 0.00,60.00,Wednesday
143,951552419.5467803
192,0.0
2,11, 1,11, 0,11, 0.00,60.00,Wednesday
143,908103843.6372223
192,0.0
2,11, 1,11, 0,12, 0.00,60.00,Wednesday
143,858882494.7767522
192,0.0
2,11, 1,11, 0,13, 0.00,60.00,Wednesday
143,829061656.2652309
192,0.0
2,11, 1,11, 0,14, 0.00,60.00,Wednesday
143,803733781.79941
192,0.0
2,11, 1,11, 0,15, 0.00,60.00,Wednesday
143,788266701.415127
192,0.0
2,11, 1,11, 0,16, 0.00,60.00,Wednesday
143,774960838.7762356
192,0.0
2,11, 1,11, 0,17, 0.00,60.00,Wednesday
143,767417355.4058261
192,0.0
2,11, 1,11, 0,18, 0.00,60.00,Wednesday
143,774870136.5991696
192,0.0
2,11, 1,11, 0,19, 0.00,60.00,Wednesday
143,782402913.2621733
192,0.0
2,11, 1,11, 0,20, 0.00,60.00,Wednesday
143,787276667.2522748
192,0.0
2,11, 1,11, 0,21, 0.00,60.00,Wednesday
143,790379660.5360452
192,0.0
2,11, 1,11, 0,22, 0.00,60.00,Wednesday
143,791334422.0547329
192,0.0
2,11, 1,11, 0,23, 0.00,60.00,Wednesday
143,790309270.905931
192,0.0
2,11, 1,11, 0,24, 0.00,60.00,Wednesday
143,785489856.2798201
192,0.0
2,12, 1,12, 0, 1, 0.00,60.00,Thursday
143,768803121.375533
192,0.0
2,12, 1,12, 0, 2, 0.00,60.00,Thursday
143,782163401.2734348
192,0.0
2,12, 1,12, 0, 3, 0.00,60.00,Thursday
143,815789848.0895958
192,0.0
2,12, 1,12, 0, 4, 0.00,60.00,Thursday
143,842958039.6313579
192,0.0
2,12, 1,12, 0, 5, 0.00,60.00,Thursday
143,856607318.9096149
192,0.0
2,12, 1,12, 0, 6, 0.00,60.00,Thursday
143,863890938.1764083
192,0.0
2,12, 1,12, 0, 7, 0.00,60.00,Thursday
143,874558096.709556
192,0.0
2,12, 1,12, 0, 8, 0.00,60.00,Thursday
143,880584628.1167785
192,0.0
2,12, 1,12, 0, 9, 0.00,60.00,Thursday
143,885414067.7797079
192,0.0
2,12, 1,12, 0,10, 0.00,60.00,Thursday
143,883833479.8988518
192,0.0
2,12, 1,12, 0,11, 0.00,60.00,Thursday
143,846710307.4984312
192,0.0
2,12, 1,12, 0,12, 0.00,60.00,Thursday
143,798951892.0988833
192,0.0
2,12, 1,12, 0,13, 0.00,60.00,Thursday
143,776615586.5496614
192,0.0
2,12, 1,12, 0,14, 0.00,60.00,Thursday
143,774892364.4452803
192,0.0
2,12, 1,12, 0,15, 0.00,60.00,Thursday
143,789832182.976235
192,0.0
2,12, 1,12, 0,16, 0.00,60.00,Thursday
143,818566303.5552964
192,0.0
2,12, 1,12, 0,17, 0.00,60.00,Thursday
143,838716112.1219279
192,0.0
2,12, 1,12, 0,18, 0.00,60.00,Thursday
143,863451652.7311805
192,0.0
2,12, 1,12, 0,19, 0.00,60.00,Thursday
143,893925403.3667449
192,0.0
2,12, 1,12, 0,20, 0.00,60.00,Thursday
143,909075590.2046242
192,0.0
2,12, 1,12, 0,21, 0.00,60.00,Thursday
143,912079041.0608265
192,0.0
2,12, 1,12, 0,22, 0.00,60.00,Thursday
143,915343674.0503099
192,0.0
2,12, 1,12, 0,23, 0.00,60.00,Thursday
143,922227314.298161
192,0.0
2,12, 1,12, 0,24, 0.00,60.00,Thursday
143,933442798.0180352
192,0.0
2,13, 1,13, 0, 1, 0.00,60.00,Friday
143,945510727.0889105
192,0.0
2,13, 1,13, 0, 2, 0.00,60.00,Friday
143,953651487.4146272
192,0.0
2,13, 1,13, 0, 3, 0.00,60.00,Friday
143,959147713.4207021
192,0.0
2,13, 1,13, 0, 4, 0.00,60.00,Friday
143,971523697.5789459
192,0.0
2,13, 1,13, 0, 5, 0.00,60.00,Friday
143,986450007.8272725
192,0.0
2,13, 1,13, 0, 6, 0.00,60.00,Friday
143,1004514538.2021778
192,0.0
2,13, 1,13, 0, 7, 0.00,60.00,Friday
143,1021732815.4594433
192,0.0
2,13, 1,13, 0, 8, 0.00,60.00,Friday
143,1030372269.7115194
192,0.0
2,13, 1,13, 0, 9, 0.00,60.00,Friday
143,1030608958.2319622
192,0.0
2,13, 1,13, 0,10, 0.00,60.00,Friday
143,1018956170.66207
192,0.0
2,13, 1,13, 0,11, 0.00,60.00,Friday
143,962682553.3348343
192,0.0
2,13, 1,13, 0,12, 0.00,60.00,Friday
143,898418451.255961
192,0.0
2,13, 1,13, 0,13, 0.00,60.00,Friday
143,858329459.5565042
192,0.0
2,13, 1,13, 0,14, 0.00,60.00,Friday
143,846963046.1401355
192,0.0
2,13, 1,13, 0,15, 0.00,60.00,Friday
143,863372442.7926301
192,0.0
2,13, 1,13, 0,16, 0.00,60.00,Friday
143,892553182.5568298
192,0.0
2,13, 1,13, 0,17, 0.00,60.00,Friday
143,913295145.1970887
192,0.0
2,13, 1,13, 0,18, 0.00,60.00,Friday
143,938844502.5889819
192,0.0
2,13, 1,13, 0,19, 0.00,60.00,Friday
143,967855105.118494
192,0.0
2,13, 1,13, 0,20, 0.00,60.00,Friday
143,977965141.9655042
192,0.0
2,13, 1,13, 0,21, 0.00,60.00,Friday
143,972319939.6759994
192,0.0
2,13, 1,13, 0,22, 0.00,60.00,Friday
143,970310895.2412548
192,0.0
2,13, 1,13, 0,23, 0.00,60.00,Friday
143,959161268.7080038
192,0.0
2,13, 1,13, 0,24, 0.00,60.00,Friday
143,941620834.3675104
192,0.0
2,14, 1,14, 0, 1, 0.00,60.00,Saturday
143,921504093.4442489
192,0.0
2,14, 1,14, 0, 2, 0.00,60.00,Saturday
143,920329691.9648559
192,0.0
2,14, 1,14, 0, 3, 0.00,60.00,Saturday
143,940842082.6617886
192,0.0
2,14, 1,14, 0, 4, 0.00,60.00,Saturday
143,956296177.3931639
192,0.0
2,14, 1,14, 0, 5, 0.00,60.00,Saturday
143,966844003.8130115
192,0.0
2,14, 1,14, 0, 6, 0.00,60.00,Saturday
143,977865938.5488315
192,0.0
2,14, 1,14, 0, 7, 0.00,60.00,Saturday
143,989706902.1977351
192,0.0
2,14, 1,14, 0, 8, 0.00,60.00,Saturday
143,1001065868.3296309
192,0.0
2,14, 1,14, 0, 9, 0.00,60.00,Saturday
143,1012226367.0374775
192,0.0
2,14, 1,14, 0,10, 0.00,60.00,Saturday
143,1012196828.489511
192,0.0
2,14, 1,14, 0,11, 0.00,60.00,Saturday
143,961288758.0406895
192,0.0
2,14, 1,14, 0,12, 0.00,60.00,Saturday
143,899142721.9474207
192,0.0
2,14, 1,14, 0,13, 0.00,60.00,Saturday
143,861695102.6981581
192,0.0
2,14, 1,14, 0,14, 0.00,60.00,Saturday
143,855926431.4083443
192,0.0
2,14, 1,14, 0,15, 0.00,60.00,Saturday
143,876189899.9500008
192,0.0
2,14, 1,14, 0,16, 0.00,60.00,Saturday
143,911247369.7252077
192,0.0
2,14, 1,14, 0,17, 0.00,60.00,Saturday
143,930284925.8097774
192,0.0
2,14, 1,14, 0,18, 0.00,60.00,Saturday
143,944865161.3401021
192,0.0
2,14, 1,14, 0,19, 0.00,60.00,Saturday
143,960159404.9622704
192,0.0
2,14, 1,14, 0,20, 0.00,60.00,Saturday
143,967316108.901795
192,0.0
2,14, 1,14, 0,21, 0.00,60.00,Saturday
143,969434907.2118337
192,0.0
2,14, 1,14, 0,22, 0.00,60.00,Saturday
143,971744253.5628682
192,0.0
2,14, 1,14, 0,23, 0.00,60.00,Saturday
143,959679761.6084031
192,0.0
2,14, 1,14, 0,24, 0.00,60.00,Saturday
143,939515603.3168211
192,0.0
2,15, 1,15, 0, 1, 0.00,60.00,Sunday
143,916844753.3953594
192,0.0
2,15, 1,15, 0, 2, 0.00,60.00,Sunday
143,906601550.5319086
192,0.0
2,15, 1,15, 0, 3, 0.00,60.00,Sunday
143,907991863.1449819
192,0.0
2,15, 1,15, 0, 4, 0.00,60.00,Sunday
143,910722183.5919064
192,0.0
2,15, 1,15, 0, 5, 0.00,60.00,Sunday
143,912491401.6651515
192,0.0
2,15, 1,15, 0, 6, 0.00,60.00,Sunday
143,913274733.9966962
192,0.0
2,15, 1,15, 0, 7, 0.00,60.00,Sunday
143,914964621.9288592
192,0.0
2,15, 1,15, 0, 8, 0.00,60.00,Sunday
143,922542105.5535157
192,0.0
2,15, 1,15, 0, 9, 0.00,60.00,Sunday
143,935178518.5184612
192,0.0
2,15, 1,15, 0,10, 0.00,60.00,Sunday
143,944080528.1011693
192,0.0
2,15, 1,15, 0,11, 0.00,60.00,Sunday
143,935071753.1381187
192,0.0
2,15, 1,15, 0,12, 0.00,60.00,Sunday
143,913497861.2248561
192,0.0
2,15, 1,15, 0,13, 0.00,60.00,Sunday
143,903778650.9623666
192,0.0
2,15, 1,15, 0,14, 0.00,60.00,Sunday
143,898960544.9759532
192,0.0
2,15, 1,15, 0,15, 0.00,60.00,Sunday
143,898031555.3265302
192,0.0
2,15, 1,15, 0,16, 0.00,60.00,Sunday
143,897641853.999638
192,0.0
2,15, 1,15, 0,17, 0.00,60.00,Sunday
143,911312358.8747387
192,0.0
2,15, 1,15, 0,18, 0.00,60.00,Sunday
143,939144515.9508476
192,0.0
2,15, 1,15, 0,19, 0.00,60.00,Sunday
143,968288877.812861
192,0.0
2,15, 1,15, 0,20, 0.00,60.00,Sunday
143,1000660185.9966116
192,0.0
2,15, 1,15, 0,21, 0.00,60.00,Sunday
143,1034206425.668582
192,0.0
2,15, 1,15, 0,22, 0.00,60.00,Sunday
143,1065688236.9137497
192,0.0
2,15, 1,15, 0,23, 0.00,60.00,Sunday
143,1061896218.993649
192,0.0
2,15, 1,15, 0,24, 0.00,60.00,Sunday
143,1035159741.7698445
192,0.0
2,16, 1,16, 0, 1, 0.00,60.00,Monday
143,1008256332.0368514
192,0.0
2,16, 1,16, 0, 2, 0.00,60.00,Monday
143,996684370.3819484
192,0.0
2,16, 1,16, 0, 3, 0.00,60.00,Monday
143,989629773.0995059
192,0.0
2,16, 1,16, 0, 4, 0.00,60.00,Monday
143,982550536.2046165
192,0.0
2,16, 1,16, 0, 5, 0.00,60.00,Monday
143,985396744.5017972
192,0.0
2,16, 1,16, 0, 6, 0.00,60.00,Monday
143,990454362.3672528
192,0.0
2,16, 1,16, 0, 7, 0.00,60.00,Monday
143,996178039.7362946
192,0.0
2,16, 1,16, 0, 8, 0.00,60.00,Monday
143,982095406.485032
192,0.0
2,16, 1,16, 0, 9, 0.00,60.00,Monday
143,954633660.7143571
192,0.0
2,16, 1,16, 0,10, 0.00,60.00,Monday
143,931659979.7403171
192,0.0
2,16, 1,16, 0,11, 0.00,60.00,Monday
143,905350140.7500584
192,0.0
2,16, 1,16, 0,12, 0.00,60.00,Monday
143,879164642.5617155
192,0.0
2,16, 1,16, 0,13, 0.00,60.00,Monday
143,857601113.6788512
192,0.0
2,16, 1,16, 0,14, 0.00,60.00,Monday
143,849494057.1308889
192,0.0
2,16, 1,16, 0,15, 0.00,60.00,Monday
143,850150896.5846121
192,0.0
2,16, 1,16, 0,16, 0.00,60.00,Monday
143,853735877.9447974
192,0.0
2,16, 1,16, 0,17, 0.00,60.00,Monday
143,857765225.1475966
192,0.0
2,16, 1,16, 0,18, 0.00,60.00,Monday
143,856725517.095614
192,0.0
2,16, 1,16, 0,19, 0.00,60.00,Monday
143,855415664.4553162
192,0.0
2,16, 1,16, 0,20, 0.00,60.00,Monday
143,855537598.6032459
192,0.0
2,16, 1,16, 0,21, 0.00,60.00,Monday
143,853388249.7537181
192,0.0
2,16, 1,16, 0,22, 0.00,60.00,Monday
143,851171895.3756984
192,0.0
2,16, 1,16, 0,23, 0.00,60.00,Monday
143,849660966.6771691
192,0.0
2,16, 1,16, 0,24, 0.00,60.00,Monday
143,849495081.9064821
192,0.0
2,17, 1,17, 0, 1, 0.00,60.00,Tuesday
143,849495450.4079195
192,0.0
2,17, 1,17, 0, 2, 0.00,60.00,Tuesday
143,853965724.7938476
192,0.0
2,17, 1,17, 0, 3, 0.00,60.00,Tuesday
143,861669725.2291687
192,0.0
2,17, 1,17, 0, 4, 0.00,60.00,Tuesday
143,869900446.9520012
192,0.0
2,17, 1,17, 0, 5, 0.00,60.00,Tuesday
143,879265448.432561
192,0.0
2,17, 1,17, 0, 6, 0.00,60.00,Tuesday
143,889535691.0680283
192,0.0
2,17, 1,17, 0, 7, 0.00,60.00,Tuesday
143,899826538.3678219
192,0.0
2,17, 1,17, 0, 8, 0.00,60.00,Tuesday
143,904122770.0193127
192,0.0
2,17, 1,17, 0, 9, 0.00,60.00,Tuesday
143,902147669.6419054
192,0.0
2,17, 1,17, 0,10, 0.00,60.00,Tuesday
143,895896896.818185
192,0.0
2,17, 1,17, 0,11, 0.00,60.00,Tuesday
143,878813816.018865
192,0.0
2,17, 1,17, 0,12, 0.00,60.00,Tuesday
143,858994986.9001906
192,0.0
2,17, 1,17, 0,13, 0.00,60.00,Tuesday
143,842644000.3615791
192,0.0
2,17, 1,17, 0,14, 0.00,60.00,Tuesday
143,833008630.9415795
192,0.0
2,17, 1,17, 0,15, 0.00,60.00,Tuesday
143,829075827.7733634
192,0.0
2,17, 1,17, 0,16, 0.00,60.00,Tuesday
143,827625364.1732509
192,0.0
2,17, 1,17, 0,17, 0.00,60.00,Tuesday
143,821072567.0834697
192,0.0
2,17, 1,17, 0,18, 0.00,60.00,Tuesday
143,810501048.2713556
192,0.0
2,17, 1,17, 0,19, 0.00,60.00,Tuesday
143,799481631.9816144
192,0.0
2,17, 1,17, 0,20, 0.00,60.00,Tuesday
143,789316382.6471183
192,0.0
2,17, 1,17, 0,21, 0.00,60.00,Tuesday
143,790706468.1518722
192,0.0
2,17, 1,17, 0,22, 0.00,60.00,Tuesday
143,789839954.89081
192,0.0
2,17, 1,17, 0,23, 0.00,60.00,Tuesday
143,785371232.3516178
192,0.0
2,17, 1,17, 0,24, 0.00,60.00,Tuesday
143,783074280.0235815
192,0.0
2,18, 1,18, 0, 1, 0.00,60.00,Wednesday
143,781085321.7177575
192,0.0
2,18, 1,18, 0, 2, 0.00,60.00,Wednesday
143,771599070.6282645
192,0.0
2,18, 1,18, 0, 3, 0.00,60.00,Wednesday
143,763285077.4497869
192,0.0
2,18, 1,18, 0, 4, 0.00,60.00,Wednesday
143,761487747.2708484
192,0.0
2,18, 1,18, 0, 5, 0.00,60.00,Wednesday
143,759764870.9480815
192,0.0
2,18, 1,18, 0, 6, 0.00,60.00,Wednesday
143,758486544.0576861
192,0.0
2,18, 1,18, 0, 7, 0.00,60.00,Wednesday
143,758139224.3236511
192,0.0
2,18, 1,18, 0, 8, 0.00,60.00,Wednesday
143,750249445.0055423
192,0.0
2,18, 1,18, 0, 9, 0.00,60.00,Wednesday
143,737012734.966193
192,0.0
2,18, 1,18, 0,10, 0.00,60.00,Wednesday
143,718296452.0625046
192,0.0
2,18, 1,18, 0,11, 0.00,60.00,Wednesday
143,691254089.0329659
192,0.0
2,18, 1,18, 0,12, 0.00,60.00,Wednesday
143,668121479.7289857
192,0.0
2,18, 1,18, 0,13, 0.00,60.00,Wednesday
143,647644378.738128
192,0.0
2,18, 1,18, 0,14, 0.00,60.00,Wednesday
143,644628950.1217147
192,0.0
2,18, 1,18, 0,15, 0.00,60.00,Wednesday
143,645916453.4267194
192,0.0
2,18, 1,18, 0,16, 0.00,60.00,Wednesday
143,648979378.4400114
192,0.0
2,18, 1,18, 0,17, 0.00,60.00,Wednesday
143,653279824.154139
192,0.0
2,18, 1,18, 0,18, 0.00,60.00,Wednesday
143,655311230.7175571
192,0.0
2,18, 1,18, 0,19, 0.00,60.00,Wednesday
143,656546901.5842121
192,0.0
2,18, 1,18, 0,20, 0.00,60.00,Wednesday
143,658991093.2216706
192,0.0
2,18, 1,18, 0,21, 0.00,60.00,Wednesday
143,662834616.9050857
192,0.0
2,18, 1,18, 0,22, 0.00,60.00,Wednesday
143,667238542.1611238
192,0.0
2,18, 1,18, 0,23, 0.00,60.00,Wednesday
143,666680265.1256223
192,0.0
2,18, 1,18, 0,24, 0.00,60.00,Wednesday
143,660831581.1541702
192,0.0
2,19, 1,19, 0, 1, 0.00,60.00,Thursday
143,657315832.3002377
192,0.0
2,19, 1,19, 0, 2, 0.00,60.00,Thursday
143,656849189.9830743
192,0.0
2,19, 1,19, 0, 3, 0.00,60.00,Thursday
143,655431036.5411608
192,0.0
2,19, 1,19, 0, 4, 0.00,60.00,Thursday
143,653973784.1405462
192,0.0
2,19, 1,19, 0, 5, 0.00,60.00,Thursday
143,652264148.5146859
192,0.0
2,19, 1,19, 0, 6, 0.00,60.00,Thursday
143,648712726.2014672
192,0.0
2,19, 1,19, 0, 7, 0.00,60.00,Thursday