Program Version,EnergyPlus, Version 24.1.0-9d7789a3ac, YMD=2025.04.29 02:17
1,5,Environment Title[],Latitude[deg],Longitude[deg],Time Zone[],Elevation[m]
2,8,Day of Simulation[],Month[],Day of Month[],DST Indicator[1=yes 0=no],Hour[],StartMinute[],EndMinute[],DayType
3,5,Cumulative Day of Simulation[],Month[],Day of Month[],DST Indicator[1=yes 0=no],DayType  ! When Daily Report Variables Requested
4,2,Cumulative Days of Simulation[],Month[]  ! When Monthly Report Variables Requested
5,1,Cumulative Days of Simulation[] ! When Run Period Report Variables Requested
6,1,Calendar Year of Simulation[] ! When Annual Report Variables Requested
192,1,DistrictCooling:Facility [J] !Hourly
143,1,DistrictHeatingWater:Facility [J] !Hourly
End of Data Dictionary
1,RUN PERIOD 1,   1.37, 103.98,   8.00,  16.00
2,1, 1, 1, 0, 1, 0.00,60.00,Sunday
143,105899015.26437294
192,0.0
2,1, 1, 1, 0, 2, 0.00,60.00,Sunday
143,119599089.72882068
192,0.0
2,1, 1, 1, 0, 3, 0.00,60.00,Sunday
143,137029852.49489784
192,0.0
2,1, 1, 1, 0, 4, 0.00,60.00,Sunday
143,160486761.71002614
192,0.0
2,1, 1, 1, 0, 5, 0.00,60.00,Sunday
143,184541282.44838575
192,0.0
2,1, 1, 1, 0, 6, 0.00,60.00,Sunday
143,203733970.3034219
192,0.0
2,1, 1, 1, 0, 7, 0.00,60.00,Sunday
143,215983636.81811726
192,0.0
2,1, 1, 1, 0, 8, 0.00,60.00,Sunday
143,210723998.78076345
192,0.0
2,1, 1, 1, 0, 9, 0.00,60.00,Sunday
143,128271296.36673592
192,0.0
2,1, 1, 1, 0,10, 0.00,60.00,Sunday
143,19089646.358563706
192,21045552.8310773
2,1, 1, 1, 0,11, 0.00,60.00,Sunday
143,0.0
192,160776468.2115522
2,1, 1, 1, 0,12, 0.00,60.00,Sunday
143,0.0
192,294227467.96872693
2,1, 1, 1, 0,13, 0.00,60.00,Sunday
143,0.0
192,396299215.5951645
2,1, 1, 1, 0,14, 0.00,60.00,Sunday
143,0.0
192,467381298.2155391
2,1, 1, 1, 0,15, 0.00,60.00,Sunday
143,0.0
192,501454251.83829
2,1, 1, 1, 0,16, 0.00,60.00,Sunday
143,0.0
192,486572085.8436048
2,1, 1, 1, 0,17, 0.00,60.00,Sunday
143,0.0
192,425359508.366531
2,1, 1, 1, 0,18, 0.00,60.00,Sunday
143,0.0
192,302599115.28465307
2,1, 1, 1, 0,19, 0.00,60.00,Sunday
143,0.0
192,158945004.7450753
2,1, 1, 1, 0,20, 0.00,60.00,Sunday
143,0.0
192,62906596.78937374
2,1, 1, 1, 0,21, 0.00,60.00,Sunday
143,3399683.338205795
192,9113703.686487311
2,1, 1, 1, 0,22, 0.00,60.00,Sunday
143,39067064.62821223
192,0.0
2,1, 1, 1, 0,23, 0.00,60.00,Sunday
143,76549987.7485234
192,0.0
2,1, 1, 1, 0,24, 0.00,60.00,Sunday
143,93470670.14385435
192,0.0
2,2, 1, 2, 0, 1, 0.00,60.00,Monday
143,105267993.14730372
192,0.0
2,2, 1, 2, 0, 2, 0.00,60.00,Monday
143,120225759.79876679
192,0.0
2,2, 1, 2, 0, 3, 0.00,60.00,Monday
143,137570194.50787532
192,0.0
2,2, 1, 2, 0, 4, 0.00,60.00,Monday
143,154025413.27611494
192,0.0
2,2, 1, 2, 0, 5, 0.00,60.00,Monday
143,170192191.91629156
192,0.0
2,2, 1, 2, 0, 6, 0.00,60.00,Monday
143,179442772.9212291
192,0.0
2,2, 1, 2, 0, 7, 0.00,60.00,Monday
143,181462460.53132957
192,0.0
2,2, 1, 2, 0, 8, 0.00,60.00,Monday
143,174301145.049628
192,0.0
2,2, 1, 2, 0, 9, 0.00,60.00,Monday
143,100394940.3429726
192,0.0
2,2, 1, 2, 0,10, 0.00,60.00,Monday
143,11026193.658459648
192,27403931.205732107
2,2, 1, 2, 0,11, 0.00,60.00,Monday
143,0.0
192,164291269.76441324
2,2, 1, 2, 0,12, 0.00,60.00,Monday
143,0.0
192,308589717.0016202
2,2, 1, 2, 0,13, 0.00,60.00,Monday
143,0.0
192,437527337.48764527
2,2, 1, 2, 0,14, 0.00,60.00,Monday
143,0.0
192,544817537.1108739
2,2, 1, 2, 0,15, 0.00,60.00,Monday
143,0.0
192,573284450.86427
2,2, 1, 2, 0,16, 0.00,60.00,Monday
143,0.0
192,535960612.36935514
2,2, 1, 2, 0,17, 0.00,60.00,Monday
143,0.0
192,448206645.4599868
2,2, 1, 2, 0,18, 0.00,60.00,Monday
143,0.0
192,315083680.6700179
2,2, 1, 2, 0,19, 0.00,60.00,Monday
143,0.0
192,171476544.37155074
2,2, 1, 2, 0,20, 0.00,60.00,Monday
143,0.0
192,77849652.81794539
2,2, 1, 2, 0,21, 0.00,60.00,Monday
143,0.0
192,26433967.38038435
2,2, 1, 2, 0,22, 0.00,60.00,Monday
143,6892812.243047401
192,983642.7285220517
2,2, 1, 2, 0,23, 0.00,60.00,Monday
143,32833191.962395787
192,0.0
2,2, 1, 2, 0,24, 0.00,60.00,Monday
143,50270526.37833548
192,0.0
2,3, 1, 3, 0, 1, 0.00,60.00,Tuesday
143,63190003.19424206
192,0.0
2,3, 1, 3, 0, 2, 0.00,60.00,Tuesday
143,80795296.19436695
192,0.0
2,3, 1, 3, 0, 3, 0.00,60.00,Tuesday
143,96679154.88905855
192,0.0
2,3, 1, 3, 0, 4, 0.00,60.00,Tuesday
143,112894111.8058252
192,0.0
2,3, 1, 3, 0, 5, 0.00,60.00,Tuesday
143,130441719.19588812
192,0.0
2,3, 1, 3, 0, 6, 0.00,60.00,Tuesday
143,139659149.493746
192,0.0
2,3, 1, 3, 0, 7, 0.00,60.00,Tuesday
143,138950210.19778833
192,0.0
2,3, 1, 3, 0, 8, 0.00,60.00,Tuesday
143,126930880.2698564
192,0.0
2,3, 1, 3, 0, 9, 0.00,60.00,Tuesday
143,49619115.68415519
192,0.0
2,3, 1, 3, 0,10, 0.00,60.00,Tuesday
143,0.0
192,115257303.62144569
2,3, 1, 3, 0,11, 0.00,60.00,Tuesday
143,0.0
192,378397675.8100042
2,3, 1, 3, 0,12, 0.00,60.00,Tuesday
143,0.0
192,673627302.1302416
2,3, 1, 3, 0,13, 0.00,60.00,Tuesday
143,0.0
192,935680816.5988123
2,3, 1, 3, 0,14, 0.00,60.00,Tuesday
143,0.0
192,1139672202.5798087
2,3, 1, 3, 0,15, 0.00,60.00,Tuesday
143,0.0
192,1213881122.639281
2,3, 1, 3, 0,16, 0.00,60.00,Tuesday
143,0.0
192,1151747274.3075864
2,3, 1, 3, 0,17, 0.00,60.00,Tuesday
143,0.0
192,952069877.6758931
2,3, 1, 3, 0,18, 0.00,60.00,Tuesday
143,0.0
192,666600091.8392233
2,3, 1, 3, 0,19, 0.00,60.00,Tuesday
143,0.0
192,394404212.16898096
2,3, 1, 3, 0,20, 0.00,60.00,Tuesday
143,0.0
192,234718040.38460654
2,3, 1, 3, 0,21, 0.00,60.00,Tuesday
143,0.0
192,145792293.07289588
2,3, 1, 3, 0,22, 0.00,60.00,Tuesday
143,0.0
192,84637784.72798814
2,3, 1, 3, 0,23, 0.00,60.00,Tuesday
143,0.0
192,37240794.09872532
2,3, 1, 3, 0,24, 0.00,60.00,Tuesday
143,2949245.3195631965
192,4557659.802885782
2,4, 1, 4, 0, 1, 0.00,60.00,Wednesday
143,23676522.206936393
192,0.0
2,4, 1, 4, 0, 2, 0.00,60.00,Wednesday
143,42510788.20557364
192,0.0
2,4, 1, 4, 0, 3, 0.00,60.00,Wednesday
143,52587701.78515375
192,0.0
2,4, 1, 4, 0, 4, 0.00,60.00,Wednesday
143,63322560.22059287
192,0.0
2,4, 1, 4, 0, 5, 0.00,60.00,Wednesday
143,78104403.53564681
192,0.0
2,4, 1, 4, 0, 6, 0.00,60.00,Wednesday
143,86534306.18783195
192,0.0
2,4, 1, 4, 0, 7, 0.00,60.00,Wednesday
143,91308608.71612833
192,0.0
2,4, 1, 4, 0, 8, 0.00,60.00,Wednesday
143,70211258.77467999
192,0.0
2,4, 1, 4, 0, 9, 0.00,60.00,Wednesday
143,40322114.39285888
192,0.0
2,4, 1, 4, 0,10, 0.00,60.00,Wednesday
143,2062121.0193950685
192,37280328.769880265
2,4, 1, 4, 0,11, 0.00,60.00,Wednesday
143,0.0
192,193869885.41065985
2,4, 1, 4, 0,12, 0.00,60.00,Wednesday
143,0.0
192,342921570.98583436
2,4, 1, 4, 0,13, 0.00,60.00,Wednesday
143,0.0
192,461672195.4170832
2,4, 1, 4, 0,14, 0.00,60.00,Wednesday
143,0.0
192,557799528.7475376
2,4, 1, 4, 0,15, 0.00,60.00,Wednesday
143,0.0
192,581391661.3622116
2,4, 1, 4, 0,16, 0.00,60.00,Wednesday
143,0.0
192,544253550.4900973
2,4, 1, 4, 0,17, 0.00,60.00,Wednesday
143,0.0
192,457531284.4112181
2,4, 1, 4, 0,18, 0.00,60.00,Wednesday
143,0.0
192,323111518.55762744
2,4, 1, 4, 0,19, 0.00,60.00,Wednesday
143,0.0
192,172328346.49745244
2,4, 1, 4, 0,20, 0.00,60.00,Wednesday
143,0.0
192,68468165.93670736
2,4, 1, 4, 0,21, 0.00,60.00,Wednesday
143,0.0
192,16304897.406151706
2,4, 1, 4, 0,22, 0.00,60.00,Wednesday
143,14640295.055838719
192,0.0
2,4, 1, 4, 0,23, 0.00,60.00,Wednesday
143,37030198.040422924
192,0.0
2,4, 1, 4, 0,24, 0.00,60.00,Wednesday
143,52938699.7414362
192,0.0
2,5, 1, 5, 0, 1, 0.00,60.00,Thursday
143,63259466.678902596
192,0.0
2,5, 1, 5, 0, 2, 0.00,60.00,Thursday
143,75392056.50191818
192,0.0
2,5, 1, 5, 0, 3, 0.00,60.00,Thursday
143,88891238.88159858
192,0.0
2,5, 1, 5, 0, 4, 0.00,60.00,Thursday
143,102208443.09060559
192,0.0
2,5, 1, 5, 0, 5, 0.00,60.00,Thursday
143,115021922.78311536
192,0.0
2,5, 1, 5, 0, 6, 0.00,60.00,Thursday
143,127312444.13044268
192,0.0
2,5, 1, 5, 0, 7, 0.00,60.00,Thursday
143,139763492.29954576
192,0.0
2,5, 1, 5, 0, 8, 0.00,60.00,Thursday
143,140924427.858281
192,0.0
2,5, 1, 5, 0, 9, 0.00,60.00,Thursday
143,72536238.42859197
192,0.0
2,5, 1, 5, 0,10, 0.00,60.00,Thursday
143,2846999.5108149475
192,44882332.655699216
2,5, 1, 5, 0,11, 0.00,60.00,Thursday
143,0.0
192,188040484.7700426
2,5, 1, 5, 0,12, 0.00,60.00,Thursday
143,0.0
192,336869698.9479341
2,5, 1, 5, 0,13, 0.00,60.00,Thursday
143,0.0
192,461910811.4680293
2,5, 1, 5, 0,14, 0.00,60.00,Thursday
143,0.0
192,556969370.8007433
2,5, 1, 5, 0,15, 0.00,60.00,Thursday
143,0.0
192,521149528.37630224
2,5, 1, 5, 0,16, 0.00,60.00,Thursday
143,0.0
192,400058394.49959123
2,5, 1, 5, 0,17, 0.00,60.00,Thursday
143,0.0
192,266746391.52366215
2,5, 1, 5, 0,18, 0.00,60.00,Thursday
143,0.0
192,189762642.114875
2,5, 1, 5, 0,19, 0.00,60.00,Thursday
143,0.0
192,106788945.32098149
2,5, 1, 5, 0,20, 0.00,60.00,Thursday
143,0.0
192,29216666.723193053
2,5, 1, 5, 0,21, 0.00,60.00,Thursday
143,19083451.100436315
192,0.0
2,5, 1, 5, 0,22, 0.00,60.00,Thursday
143,46530308.620308086
192,0.0
2,5, 1, 5, 0,23, 0.00,60.00,Thursday
143,64572056.66976346
192,0.0
2,5, 1, 5, 0,24, 0.00,60.00,Thursday
143,77919321.92184025
192,0.0
2,6, 1, 6, 0, 1, 0.00,60.00,Friday
143,93511159.1232363
192,0.0
2,6, 1, 6, 0, 2, 0.00,60.00,Friday
143,112534865.56484458
192,0.0
2,6, 1, 6, 0, 3, 0.00,60.00,Friday
143,127121390.3329225
192,0.0
2,6, 1, 6, 0, 4, 0.00,60.00,Friday
143,143029438.20358175
192,0.0
2,6, 1, 6, 0, 5, 0.00,60.00,Friday
143,158340173.63636637
192,0.0
2,6, 1, 6, 0, 6, 0.00,60.00,Friday
143,170991955.27672827
192,0.0
2,6, 1, 6, 0, 7, 0.00,60.00,Friday
143,184912946.4435445
192,0.0
2,6, 1, 6, 0, 8, 0.00,60.00,Friday
143,187717538.28463662
192,0.0
2,6, 1, 6, 0, 9, 0.00,60.00,Friday
143,103839287.61517856
192,0.0
2,6, 1, 6, 0,10, 0.00,60.00,Friday
143,8727370.952608341
192,33486166.10648565
2,6, 1, 6, 0,11, 0.00,60.00,Friday
143,0.0
192,177686831.16757956
2,6, 1, 6, 0,12, 0.00,60.00,Friday
143,0.0
192,328799538.41035193
2,6, 1, 6, 0,13, 0.00,60.00,Friday
143,0.0
192,455375823.5313817
2,6, 1, 6, 0,14, 0.00,60.00,Friday
143,0.0
192,557813786.6984711
2,6, 1, 6, 0,15, 0.00,60.00,Friday
143,0.0
192,585849823.0865569
2,6, 1, 6, 0,16, 0.00,60.00,Friday
143,0.0
192,551329105.0772738
2,6, 1, 6, 0,17, 0.00,60.00,Friday
143,0.0
192,466963965.7569758
2,6, 1, 6, 0,18, 0.00,60.00,Friday
143,0.0
192,333002120.36700284
2,6, 1, 6, 0,19, 0.00,60.00,Friday
143,0.0
192,181906649.37670857
2,6, 1, 6, 0,20, 0.00,60.00,Friday
143,0.0
192,76902861.32679074
2,6, 1, 6, 0,21, 0.00,60.00,Friday
143,0.0
192,19809485.77870969
2,6, 1, 6, 0,22, 0.00,60.00,Friday
143,15625792.89194676
192,0.0
2,6, 1, 6, 0,23, 0.00,60.00,Friday
143,44523413.2108372
192,0.0
2,6, 1, 6, 0,24, 0.00,60.00,Friday
143,62250419.25718649
192,0.0
2,7, 1, 7, 0, 1, 0.00,60.00,Saturday
143,76706465.01266018
192,0.0
2,7, 1, 7, 0, 2, 0.00,60.00,Saturday
143,95823687.66250676
192,0.0
2,7, 1, 7, 0, 3, 0.00,60.00,Saturday
143,117085447.49750543
192,0.0
2,7, 1, 7, 0, 4, 0.00,60.00,Saturday
143,141572828.0779038
192,0.0
2,7, 1, 7, 0, 5, 0.00,60.00,Saturday
143,172574356.47063804
192,0.0
2,7, 1, 7, 0, 6, 0.00,60.00,Saturday
143,175948962.8678647
192,0.0
2,7, 1, 7, 0, 7, 0.00,60.00,Saturday
143,154397976.86370647
192,0.0
2,7, 1, 7, 0, 8, 0.00,60.00,Saturday
143,126429031.97937247
192,0.0
2,7, 1, 7, 0, 9, 0.00,60.00,Saturday
143,55534743.8529929
192,0.0
2,7, 1, 7, 0,10, 0.00,60.00,Saturday
143,1400581.5674648152
192,46597709.38562284
2,7, 1, 7, 0,11, 0.00,60.00,Saturday
143,0.0
192,183310008.96354806
2,7, 1, 7, 0,12, 0.00,60.00,Saturday
143,0.0
192,334205103.25247633
2,7, 1, 7, 0,13, 0.00,60.00,Saturday
143,0.0
192,469907667.9980465
2,7, 1, 7, 0,14, 0.00,60.00,Saturday
143,0.0
192,586114785.7925887
2,7, 1, 7, 0,15, 0.00,60.00,Saturday
143,0.0
192,618869673.6297331
2,7, 1, 7, 0,16, 0.00,60.00,Saturday
143,0.0
192,579503449.2632114
2,7, 1, 7, 0,17, 0.00,60.00,Saturday
143,0.0
192,489679833.7028141
2,7, 1, 7, 0,18, 0.00,60.00,Saturday
143,0.0
192,344788108.74517596
2,7, 1, 7, 0,19, 0.00,60.00,Saturday
143,0.0
192,188536078.640635
2,7, 1, 7, 0,20, 0.00,60.00,Saturday
143,0.0
192,87785869.89292894
2,7, 1, 7, 0,21, 0.00,60.00,Saturday
143,0.0
192,31000450.226089217
2,7, 1, 7, 0,22, 0.00,60.00,Saturday
143,9161689.915979698
192,1293852.4032366925
2,7, 1, 7, 0,23, 0.00,60.00,Saturday
143,42358461.053401545
192,0.0
2,7, 1, 7, 0,24, 0.00,60.00,Saturday
143,65475144.70050274
192,0.0
2,8, 1, 8, 0, 1, 0.00,60.00,Sunday
143,79625094.30981468
192,0.0
2,8, 1, 8, 0, 2, 0.00,60.00,Sunday
143,96241447.09821685
192,0.0
2,8, 1, 8, 0, 3, 0.00,60.00,Sunday
143,114552447.04044747
192,0.0
2,8, 1, 8, 0, 4, 0.00,60.00,Sunday
143,133454225.41544257
192,0.0
2,8, 1, 8, 0, 5, 0.00,60.00,Sunday
143,153507925.18446738
192,0.0
2,8, 1, 8, 0, 6, 0.00,60.00,Sunday
143,166330336.2722909
192,0.0
2,8, 1, 8, 0, 7, 0.00,60.00,Sunday
143,171124073.50340825
192,0.0
2,8, 1, 8, 0, 8, 0.00,60.00,Sunday
143,163378872.28566435
192,0.0
2,8, 1, 8, 0, 9, 0.00,60.00,Sunday
143,76658535.28097443
192,0.0
2,8, 1, 8, 0,10, 0.00,60.00,Sunday
143,0.0
192,99252213.87126186
2,8, 1, 8, 0,11, 0.00,60.00,Sunday
143,0.0
192,366003092.7732953
2,8, 1, 8, 0,12, 0.00,60.00,Sunday
143,0.0
192,661886329.1668261
2,8, 1, 8, 0,13, 0.00,60.00,Sunday
143,0.0
192,921859420.8521222
2,8, 1, 8, 0,14, 0.00,60.00,Sunday
143,0.0
192,1127831961.4846845
2,8, 1, 8, 0,15, 0.00,60.00,Sunday
143,0.0
192,1244822151.1751857
2,8, 1, 8, 0,16, 0.00,60.00,Sunday
143,0.0
192,1238760470.6817164
2,8, 1, 8, 0,17, 0.00,60.00,Sunday
143,0.0
192,1102741476.5831654
2,8, 1, 8, 0,18, 0.00,60.00,Sunday
143,0.0
192,833006217.4764073
2,8, 1, 8, 0,19, 0.00,60.00,Sunday
143,0.0
192,501263263.55271226
2,8, 1, 8, 0,20, 0.00,60.00,Sunday
143,0.0
192,289408137.0993996
2,8, 1, 8, 0,21, 0.00,60.00,Sunday
143,0.0
192,182802441.00708696
2,8, 1, 8, 0,22, 0.00,60.00,Sunday
143,0.0
192,108111777.89611694
2,8, 1, 8, 0,23, 0.00,60.00,Sunday
143,0.0
192,47031319.974706985
2,8, 1, 8, 0,24, 0.00,60.00,Sunday
143,2083054.9129025075
192,6070294.762055855
2,9, 1, 9, 0, 1, 0.00,60.00,Monday
143,31886097.176313113
192,0.0
2,9, 1, 9, 0, 2, 0.00,60.00,Monday
143,66595354.29544009
192,0.0
2,9, 1, 9, 0, 3, 0.00,60.00,Monday
143,86342806.06794375
192,0.0
2,9, 1, 9, 0, 4, 0.00,60.00,Monday
143,97687679.291705
192,0.0
2,9, 1, 9, 0, 5, 0.00,60.00,Monday
143,109616094.35706456
192,0.0
2,9, 1, 9, 0, 6, 0.00,60.00,Monday
143,120110617.88777378
192,0.0
2,9, 1, 9, 0, 7, 0.00,60.00,Monday
143,131129124.76849827
192,0.0
2,9, 1, 9, 0, 8, 0.00,60.00,Monday
143,130683169.79943758
192,0.0
2,9, 1, 9, 0, 9, 0.00,60.00,Monday
143,63946963.87385968
192,0.0
2,9, 1, 9, 0,10, 0.00,60.00,Monday
143,0.0
192,72382801.85516122
2,9, 1, 9, 0,11, 0.00,60.00,Monday
143,0.0
192,250581331.03279442
2,9, 1, 9, 0,12, 0.00,60.00,Monday
143,0.0
192,438360737.39104295
2,9, 1, 9, 0,13, 0.00,60.00,Monday
143,0.0
192,618454438.25604
2,9, 1, 9, 0,14, 0.00,60.00,Monday
143,0.0
192,754925498.2142564
2,9, 1, 9, 0,15, 0.00,60.00,Monday
143,0.0
192,773701684.4486375
2,9, 1, 9, 0,16, 0.00,60.00,Monday
143,0.0
192,716310762.3339232
2,9, 1, 9, 0,17, 0.00,60.00,Monday
143,0.0
192,599396033.7737876
2,9, 1, 9, 0,18, 0.00,60.00,Monday
143,0.0
192,457831451.020337
2,9, 1, 9, 0,19, 0.00,60.00,Monday
143,0.0
192,277928430.0931101
2,9, 1, 9, 0,20, 0.00,60.00,Monday
143,0.0
192,153849579.96946415
2,9, 1, 9, 0,21, 0.00,60.00,Monday
143,0.0
192,85119631.2391102
2,9, 1, 9, 0,22, 0.00,60.00,Monday
143,0.0
192,24917694.7934473
2,9, 1, 9, 0,23, 0.00,60.00,Monday
143,30072319.24662273
192,0.0
2,9, 1, 9, 0,24, 0.00,60.00,Monday
143,62395833.88464822
192,0.0
2,10, 1,10, 0, 1, 0.00,60.00,Tuesday
143,79569250.92735954
192,0.0
2,10, 1,10, 0, 2, 0.00,60.00,Tuesday
143,94465603.07062042
192,0.0
2,10, 1,10, 0, 3, 0.00,60.00,Tuesday
143,105780082.09346704
192,0.0
2,10, 1,10, 0, 4, 0.00,60.00,Tuesday
143,120829242.28561604
192,0.0
2,10, 1,10, 0, 5, 0.00,60.00,Tuesday
143,134964625.007582
192,0.0
2,10, 1,10, 0, 6, 0.00,60.00,Tuesday
143,134363035.775667
192,0.0
2,10, 1,10, 0, 7, 0.00,60.00,Tuesday
143,119243019.56511807
192,0.0
2,10, 1,10, 0, 8, 0.00,60.00,Tuesday
143,96953010.4867641
192,0.0
2,10, 1,10, 0, 9, 0.00,60.00,Tuesday
143,42744487.01529521
192,0.0
2,10, 1,10, 0,10, 0.00,60.00,Tuesday
143,458492.42048989976
192,30516751.267975233
2,10, 1,10, 0,11, 0.00,60.00,Tuesday
143,0.0
192,146300639.0550236
2,10, 1,10, 0,12, 0.00,60.00,Tuesday
143,0.0
192,289612006.31360793
2,10, 1,10, 0,13, 0.00,60.00,Tuesday
143,0.0
192,415733548.7197881
2,10, 1,10, 0,14, 0.00,60.00,Tuesday
143,0.0
192,514115260.8712088
2,10, 1,10, 0,15, 0.00,60.00,Tuesday
143,0.0
192,555979744.9728348
2,10, 1,10, 0,16, 0.00,60.00,Tuesday
143,0.0
192,531790457.94723177
2,10, 1,10, 0,17, 0.00,60.00,Tuesday
143,0.0
192,452300029.7601441
2,10, 1,10, 0,18, 0.00,60.00,Tuesday
143,0.0
192,323935599.5120259
2,10, 1,10, 0,19, 0.00,60.00,Tuesday
143,0.0
192,179948589.64779133
2,10, 1,10, 0,20, 0.00,60.00,Tuesday
143,0.0
192,82670506.28692105
2,10, 1,10, 0,21, 0.00,60.00,Tuesday
143,0.0
192,24500522.000874285
2,10, 1,10, 0,22, 0.00,60.00,Tuesday
143,21823334.32443864
192,0.0
2,10, 1,10, 0,23, 0.00,60.00,Tuesday
143,62340905.22715472
192,0.0
2,10, 1,10, 0,24, 0.00,60.00,Tuesday
143,79402263.93465257
192,0.0
2,11, 1,11, 0, 1, 0.00,60.00,Wednesday
143,85832613.58399287
192,0.0
2,11, 1,11, 0, 2, 0.00,60.00,Wednesday
143,96562424.35871133
192,0.0
2,11, 1,11, 0, 3, 0.00,60.00,Wednesday
143,104214341.30882281
192,0.0
2,11, 1,11, 0, 4, 0.00,60.00,Wednesday
143,110042959.70694223
192,0.0
2,11, 1,11, 0, 5, 0.00,60.00,Wednesday
143,114870717.99866258
192,0.0
2,11, 1,11, 0, 6, 0.00,60.00,Wednesday
143,108404540.52825563
192,0.0
2,11, 1,11, 0, 7, 0.00,60.00,Wednesday
143,96722293.73717195
192,0.0
2,11, 1,11, 0, 8, 0.00,60.00,Wednesday
143,74830294.62624107
192,0.0
2,11, 1,11, 0, 9, 0.00,60.00,Wednesday
143,19975406.2214381
192,750524.78928287
2,11, 1,11, 0,10, 0.00,60.00,Wednesday
143,0.0
192,68150589.4159801
2,11, 1,11, 0,11, 0.00,60.00,Wednesday
143,0.0
192,204103421.07266355
2,11, 1,11, 0,12, 0.00,60.00,Wednesday
143,0.0
192,340953870.4517987
2,11, 1,11, 0,13, 0.00,60.00,Wednesday
143,0.0
192,450061282.0677453
2,11, 1,11, 0,14, 0.00,60.00,Wednesday
143,0.0
192,535560532.82299083
2,11, 1,11, 0,15, 0.00,60.00,Wednesday
143,0.0
192,553426577.6033111
2,11, 1,11, 0,16, 0.00,60.00,Wednesday
143,0.0
192,515668310.4440452
2,11, 1,11, 0,17, 0.00,60.00,Wednesday
143,0.0
192,372755015.0209734
2,11, 1,11, 0,18, 0.00,60.00,Wednesday
143,0.0
192,254779576.7557168
2,11, 1,11, 0,19, 0.00,60.00,Wednesday
143,0.0
192,136382590.75272986
2,11, 1,11, 0,20, 0.00,60.00,Wednesday
143,452856.1832780017
192,25883569.334523197
2,11, 1,11, 0,21, 0.00,60.00,Wednesday
143,29473353.690923147
192,0.0
2,11, 1,11, 0,22, 0.00,60.00,Wednesday
143,68510100.12339067
192,0.0
2,11, 1,11, 0,23, 0.00,60.00,Wednesday
143,99658641.43751219
192,0.0
2,11, 1,11, 0,24, 0.00,60.00,Wednesday
143,113502213.84369312
192,0.0
2,12, 1,12, 0, 1, 0.00,60.00,Thursday
143,125740817.14138769
192,0.0
2,12, 1,12, 0, 2, 0.00,60.00,Thursday
143,141341269.73786914
192,0.0
2,12, 1,12, 0, 3, 0.00,60.00,Thursday
143,157374714.90604624
192,0.0
2,12, 1,12, 0, 4, 0.00,60.00,Thursday
143,168042332.32649612
192,0.0
2,12, 1,12, 0, 5, 0.00,60.00,Thursday
143,175791298.7243013
192,0.0
2,12, 1,12, 0, 6, 0.00,60.00,Thursday
143,174501932.28615153
192,0.0
2,12, 1,12, 0, 7, 0.00,60.00,Thursday
143,154700704.51956657
192,0.0
2,12, 1,12, 0, 8, 0.00,60.00,Thursday
143,121293259.12992616
192,0.0
2,12, 1,12, 0, 9, 0.00,60.00,Thursday
143,51999104.05326686
192,0.0
2,12, 1,12, 0,10, 0.00,60.00,Thursday
143,1508891.821914352
192,47576479.96569543
2,12, 1,12, 0,11, 0.00,60.00,Thursday
143,0.0
192,185537728.40596175
2,12, 1,12, 0,12, 0.00,60.00,Thursday
143,0.0
192,331028496.91911453
2,12, 1,12, 0,13, 0.00,60.00,Thursday
143,0.0
192,453757722.4468539
2,12, 1,12, 0,14, 0.00,60.00,Thursday
143,0.0
192,552391595.2155771
2,12, 1,12, 0,15, 0.00,60.00,Thursday
143,0.0
192,582802452.8758996
2,12, 1,12, 0,16, 0.00,60.00,Thursday
143,0.0
192,557313378.211581
2,12, 1,12, 0,17, 0.00,60.00,Thursday
143,0.0
192,490346953.96143454
2,12, 1,12, 0,18, 0.00,60.00,Thursday
143,0.0
192,401442112.20895565
2,12, 1,12, 0,19, 0.00,60.00,Thursday
143,0.0
192,239010652.48019972
2,12, 1,12, 0,20, 0.00,60.00,Thursday
143,0.0
192,116677481.82727891
2,12, 1,12, 0,21, 0.00,60.00,Thursday
143,0.0
192,50493801.0656922
2,12, 1,12, 0,22, 0.00,60.00,Thursday
143,4563441.764830008
192,6338771.730814015
2,12, 1,12, 0,23, 0.00,60.00,Thursday
143,42086613.14875249
192,0.0
2,12, 1,12, 0,24, 0.00,60.00,Thursday
143,72380876.28947635
192,0.0
2,13, 1,13, 0, 1, 0.00,60.00,Friday
143,89431392.47637013
192,0.0
2,13, 1,13, 0, 2, 0.00,60.00,Friday
143,109215963.07742147
192,0.0
2,13, 1,13, 0, 3, 0.00,60.00,Friday
143,132057054.67311156
192,0.0
2,13, 1,13, 0, 4, 0.00,60.00,Friday
143,154998730.56465593
192,0.0
2,13, 1,13, 0, 5, 0.00,60.00,Friday
143,177178092.81581146
192,0.0
2,13, 1,13, 0, 6, 0.00,60.00,Friday
143,169757727.76781598
192,0.0
2,13, 1,13, 0, 7, 0.00,60.00,Friday
143,143515029.49980447
192,0.0
2,13, 1,13, 0, 8, 0.00,60.00,Friday
143,107196306.56545925
192,0.0
2,13, 1,13, 0, 9, 0.00,60.00,Friday
143,31256122.79980131
192,265251.4260782415
2,13, 1,13, 0,10, 0.00,60.00,Friday
143,0.0
192,74156905.7055792
2,13, 1,13, 0,11, 0.00,60.00,Friday
143,0.0
192,202807802.58684504
2,13, 1,13, 0,12, 0.00,60.00,Friday
143,0.0
192,342566904.81426233
2,13, 1,13, 0,13, 0.00,60.00,Friday
143,0.0
192,462245450.6729147
2,13, 1,13, 0,14, 0.00,60.00,Friday
143,0.0
192,558747381.3215073
2,13, 1,13, 0,15, 0.00,60.00,Friday
143,0.0
192,586320712.4793583
2,13, 1,13, 0,16, 0.00,60.00,Friday
143,0.0
192,559748360.7449422
2,13, 1,13, 0,17, 0.00,60.00,Friday
143,0.0
192,484477468.6538045
2,13, 1,13, 0,18, 0.00,60.00,Friday
143,0.0
192,354745837.88015217
2,13, 1,13, 0,19, 0.00,60.00,Friday
143,0.0
192,204632912.4532601
2,13, 1,13, 0,20, 0.00,60.00,Friday
143,0.0
192,107984809.25476028
2,13, 1,13, 0,21, 0.00,60.00,Friday
143,0.0
192,49202249.38045993
2,13, 1,13, 0,22, 0.00,60.00,Friday
143,4107705.976673215
192,6763055.506773492
2,13, 1,13, 0,23, 0.00,60.00,Friday
143,38898168.90616826
192,0.0
2,13, 1,13, 0,24, 0.00,60.00,Friday
143,63731525.440103516
192,0.0
2,14, 1,14, 0, 1, 0.00,60.00,Saturday
143,73958521.31762423
192,0.0
2,14, 1,14, 0, 2, 0.00,60.00,Saturday
143,85548351.0337518
192,0.0
2,14, 1,14, 0, 3, 0.00,60.00,Saturday
143,97038962.50102198
192,0.0
2,14, 1,14, 0, 4, 0.00,60.00,Saturday
143,106218640.17515773
192,0.0
2,14, 1,14, 0, 5, 0.00,60.00,Saturday
143,115857879.58411445
192,0.0
2,14, 1,14, 0, 6, 0.00,60.00,Saturday
143,116619370.61608681
192,0.0
2,14, 1,14, 0, 7, 0.00,60.00,Saturday
143,110635991.03249857
192,0.0
2,14, 1,14, 0, 8, 0.00,60.00,Saturday
143,99997359.61967067
192,0.0
2,14, 1,14, 0, 9, 0.00,60.00,Saturday
143,68954746.94281098
192,0.0
2,14, 1,14, 0,10, 0.00,60.00,Saturday
143,31635748.03783544
192,0.0
2,14, 1,14, 0,11, 0.00,60.00,Saturday
143,10081912.806616442
192,131831.71326513516
2,14, 1,14, 0,12, 0.00,60.00,Saturday
143,0.0
192,43834392.49364504
2,14, 1,14, 0,13, 0.00,60.00,Saturday
143,0.0
192,134589564.43285736
2,14, 1,14, 0,14, 0.00,60.00,Saturday
143,0.0
192,225962420.9760152
2,14, 1,14, 0,15, 0.00,60.00,Saturday
143,0.0
192,304897563.24767774
2,14, 1,14, 0,16, 0.00,60.00,Saturday
143,0.0
192,341750314.7044922
2,14, 1,14, 0,17, 0.00,60.00,Saturday
143,0.0
192,318331550.3501058
2,14, 1,14, 0,18, 0.00,60.00,Saturday
143,0.0
192,226993892.37664467
2,14, 1,14, 0,19, 0.00,60.00,Saturday
143,0.0
192,104506161.14762646
2,14, 1,14, 0,20, 0.00,60.00,Saturday
143,366283.1564373336
192,21155506.804344557
2,14, 1,14, 0,21, 0.00,60.00,Saturday
143,24623920.76653889
192,0.0
2,14, 1,14, 0,22, 0.00,60.00,Saturday
143,51327888.33373803
192,0.0
2,14, 1,14, 0,23, 0.00,60.00,Saturday
143,69217193.66951017
192,0.0
2,14, 1,14, 0,24, 0.00,60.00,Saturday
143,82729774.24486813
192,0.0
2,15, 1,15, 0, 1, 0.00,60.00,Sunday
143,89057351.69597642
192,0.0
2,15, 1,15, 0, 2, 0.00,60.00,Sunday
143,94748543.60559706
192,0.0
2,15, 1,15, 0, 3, 0.00,60.00,Sunday
143,100689770.80336913
192,0.0
2,15, 1,15, 0, 4, 0.00,60.00,Sunday
143,104115443.799977
192,0.0
2,15, 1,15, 0, 5, 0.00,60.00,Sunday
143,90551099.11048363
192,0.0
2,15, 1,15, 0, 6, 0.00,60.00,Sunday
143,89488743.93919829
192,0.0
2,15, 1,15, 0, 7, 0.00,60.00,Sunday
143,87993343.82672869
192,0.0
2,15, 1,15, 0, 8, 0.00,60.00,Sunday
143,68060301.15460485
192,0.0
2,15, 1,15, 0, 9, 0.00,60.00,Sunday
143,19186653.740406543
192,498388.7242157514
2,15, 1,15, 0,10, 0.00,60.00,Sunday
143,0.0
192,58311084.79895355
2,15, 1,15, 0,11, 0.00,60.00,Sunday
143,0.0
192,187850794.02624688
2,15, 1,15, 0,12, 0.00,60.00,Sunday
143,0.0
192,324915305.85358834
2,15, 1,15, 0,13, 0.00,60.00,Sunday
143,0.0
192,453081521.00340176
2,15, 1,15, 0,14, 0.00,60.00,Sunday
143,0.0
192,538206204.5121497
2,15, 1,15, 0,15, 0.00,60.00,Sunday
143,0.0
192,559132462.7314976
2,15, 1,15, 0,16, 0.00,60.00,Sunday
143,0.0
192,528935339.19837946
2,15, 1,15, 0,17, 0.00,60.00,Sunday
143,0.0
192,448243189.99641556
2,15, 1,15, 0,18, 0.00,60.00,Sunday
143,0.0
192,312948547.4847705
2,15, 1,15, 0,19, 0.00,60.00,Sunday
143,0.0
192,173118931.39788878
2,15, 1,15, 0,20, 0.00,60.00,Sunday
143,0.0
192,83744653.19024174
2,15, 1,15, 0,21, 0.00,60.00,Sunday
143,0.0
192,32130032.562684152
2,15, 1,15, 0,22, 0.00,60.00,Sunday
143,6062176.150997355
192,2008460.9875158933
2,15, 1,15, 0,23, 0.00,60.00,Sunday
143,32363606.71524451
192,0.0
2,15, 1,15, 0,24, 0.00,60.00,Sunday
143,49653519.042288356
192,0.0
2,16, 1,16, 0, 1, 0.00,60.00,Monday
143,59623294.582916416
192,0.0
2,16, 1,16, 0, 2, 0.00,60.00,Monday
143,70417288.17976084
192,0.0
2,16, 1,16, 0, 3, 0.00,60.00,Monday
143,80581312.4322605
192,0.0
2,16, 1,16, 0, 4, 0.00,60.00,Monday
143,91455304.04705538
192,0.0
2,16, 1,16, 0, 5, 0.00,60.00,Monday
143,101433873.30862309
192,0.0
2,16, 1,16, 0, 6, 0.00,60.00,Monday
143,106566951.75766757
192,0.0
2,16, 1,16, 0, 7, 0.00,60.00,Monday
143,107199972.47573492
192,0.0
2,16, 1,16, 0, 8, 0.00,60.00,Monday
143,104501785.80779454
192,0.0
2,16, 1,16, 0, 9, 0.00,60.00,Monday
143,86628026.99930215
192,0.0
2,16, 1,16, 0,10, 0.00,60.00,Monday
143,58743746.810712114
192,0.0
2,16, 1,16, 0,11, 0.00,60.00,Monday
143,33750467.09711006
192,0.0
2,16, 1,16, 0,12, 0.00,60.00,Monday
143,12062972.468107937
192,1317309.4486723335
2,16, 1,16, 0,13, 0.00,60.00,Monday
143,0.0
192,23618599.02224198
2,16, 1,16, 0,14, 0.00,60.00,Monday
143,0.0
192,44675360.239187755
2,16, 1,16, 0,15, 0.00,60.00,Monday
143,0.0
192,55118014.87817574
2,16, 1,16, 0,16, 0.00,60.00,Monday
143,0.0
192,51268367.70252943
2,16, 1,16, 0,17, 0.00,60.00,Monday
143,0.0
192,34568064.31044593
2,16, 1,16, 0,18, 0.00,60.00,Monday
143,1102060.0445964371
192,10893379.131354937
2,16, 1,16, 0,19, 0.00,60.00,Monday
143,27398006.654254988
192,0.0
2,16, 1,16, 0,20, 0.00,60.00,Monday
143,56983998.80679006
192,0.0
2,16, 1,16, 0,21, 0.00,60.00,Monday
143,83039675.51988749
192,0.0
2,16, 1,16, 0,22, 0.00,60.00,Monday
143,108259084.97442137
192,0.0
2,16, 1,16, 0,23, 0.00,60.00,Monday
143,140506323.84264898
192,0.0
2,16, 1,16, 0,24, 0.00,60.00,Monday
143,159611665.45957878
192,0.0
2,17, 1,17, 0, 1, 0.00,60.00,Tuesday
143,163416095.4948651
192,0.0
2,17, 1,17, 0, 2, 0.00,60.00,Tuesday
143,165127713.2196869
192,0.0
2,17, 1,17, 0, 3, 0.00,60.00,Tuesday
143,164685743.21575394
192,0.0
2,17, 1,17, 0, 4, 0.00,60.00,Tuesday
143,165070885.32816136
192,0.0
2,17, 1,17, 0, 5, 0.00,60.00,Tuesday
143,165695862.50666106
192,0.0
2,17, 1,17, 0, 6, 0.00,60.00,Tuesday
143,153533204.0767022
192,0.0
2,17, 1,17, 0, 7, 0.00,60.00,Tuesday
143,133459142.04147932
192,0.0
2,17, 1,17, 0, 8, 0.00,60.00,Tuesday
143,110335123.73523422
192,0.0
2,17, 1,17, 0, 9, 0.00,60.00,Tuesday
143,68485376.6416782
192,0.0
2,17, 1,17, 0,10, 0.00,60.00,Tuesday
143,28945750.149242893
192,0.0
2,17, 1,17, 0,11, 0.00,60.00,Tuesday
143,14055732.422220193
192,0.0
2,17, 1,17, 0,12, 0.00,60.00,Tuesday
143,0.0
192,94672324.20892541
2,17, 1,17, 0,13, 0.00,60.00,Tuesday
143,0.0
192,306390275.4550625
2,17, 1,17, 0,14, 0.00,60.00,Tuesday
143,0.0
192,440263947.6329042
2,17, 1,17, 0,15, 0.00,60.00,Tuesday
143,0.0
192,492864983.1993128
2,17, 1,17, 0,16, 0.00,60.00,Tuesday
143,0.0
192,487870533.23799145
2,17, 1,17, 0,17, 0.00,60.00,Tuesday
143,0.0
192,431278942.2835264
2,17, 1,17, 0,18, 0.00,60.00,Tuesday
143,0.0
192,317241207.4735893
2,17, 1,17, 0,19, 0.00,60.00,Tuesday
143,0.0
192,176892711.9406913
2,17, 1,17, 0,20, 0.00,60.00,Tuesday
143,0.0
192,87186004.45912334
2,17, 1,17, 0,21, 0.00,60.00,Tuesday
143,0.0
192,34739716.007167764
2,17, 1,17, 0,22, 0.00,60.00,Tuesday
143,7622262.387718493
192,2250948.2228554324
2,17, 1,17, 0,23, 0.00,60.00,Tuesday
143,40274659.91559032
192,0.0
2,17, 1,17, 0,24, 0.00,60.00,Tuesday
143,57540538.38375484
192,0.0
2,18, 1,18, 0, 1, 0.00,60.00,Wednesday
143,64382746.0348275
192,0.0
2,18, 1,18, 0, 2, 0.00,60.00,Wednesday
143,73736040.91236603
192,0.0
2,18, 1,18, 0, 3, 0.00,60.00,Wednesday
143,83279209.63486725
192,0.0
2,18, 1,18, 0, 4, 0.00,60.00,Wednesday
143,89786561.86497213
192,0.0
2,18, 1,18, 0, 5, 0.00,60.00,Wednesday
143,83721813.25056872
192,0.0
2,18, 1,18, 0, 6, 0.00,60.00,Wednesday
143,96624951.34254447
192,0.0
2,18, 1,18, 0, 7, 0.00,60.00,Wednesday
143,120750548.98484495
192,0.0
2,18, 1,18, 0, 8, 0.00,60.00,Wednesday
143,130247786.09459266
192,0.0
2,18, 1,18, 0, 9, 0.00,60.00,Wednesday
143,126037205.69508019
192,0.0
2,18, 1,18, 0,10, 0.00,60.00,Wednesday
143,108648245.28322081
192,0.0
2,18, 1,18, 0,11, 0.00,60.00,Wednesday
143,64670110.66914307
192,0.0
2,18, 1,18, 0,12, 0.00,60.00,Wednesday
143,14589225.014362667
192,8189290.746006675
2,18, 1,18, 0,13, 0.00,60.00,Wednesday
143,0.0
192,99078884.63661788
2,18, 1,18, 0,14, 0.00,60.00,Wednesday
143,0.0
192,156171691.93613958
2,18, 1,18, 0,15, 0.00,60.00,Wednesday
143,0.0
192,168258406.34904316
2,18, 1,18, 0,16, 0.00,60.00,Wednesday
143,0.0
192,148524782.36999315
2,18, 1,18, 0,17, 0.00,60.00,Wednesday
143,0.0
192,106439491.43067698
2,18, 1,18, 0,18, 0.00,60.00,Wednesday
143,0.0
192,49965788.81504814
2,18, 1,18, 0,19, 0.00,60.00,Wednesday
143,13481070.059296912
192,2899361.0552085107
2,18, 1,18, 0,20, 0.00,60.00,Wednesday
143,44560056.38536149
192,0.0
2,18, 1,18, 0,21, 0.00,60.00,Wednesday
143,59345350.18902258
192,0.0
2,18, 1,18, 0,22, 0.00,60.00,Wednesday
143,76484399.41731173
192,0.0