Program Version,EnergyPlus, Version 24.1.0-9d7789a3ac, YMD=2025.04.29 02:19
1,5,Environment Title[],Latitude[deg],Longitude[deg],Time Zone[],Elevation[m]
2,8,Day of Simulation[],Month[],Day of Month[],DST Indicator[1=yes 0=no],Hour[],StartMinute[],EndMinute[],DayType
3,5,Cumulative Day of Simulation[],Month[],Day of Month[],DST Indicator[1=yes 0=no],DayType  ! When Daily Meters Requested
4,2,Cumulative Days of Simulation[],Month[]  ! When Monthly Meters Requested
5,1,Cumulative Days of Simulation[] ! When Run Period Meters Requested
6,1,Calendar Year of Simulation[] ! When Annual Meters Requested
192,1,DistrictCooling:Facility [J] !Hourly
143,1,DistrictHeatingWater:Facility [J] !Hourly
End of Data Dictionary
1,RUN PERIOD 1,   1.37, 103.98,   8.00,  16.00
2,1, 1, 1, 0, 1, 0.00,60.00,Sunday
143,105982176.11416371
192,0.0
2,1, 1, 1, 0, 2, 0.00,60.00,Sunday
143,119820400.07549527
192,0.0
2,1, 1, 1, 0, 3, 0.00,60.00,Sunday
143,137457956.0368754
192,0.0
2,1, 1, 1, 0, 4, 0.00,60.00,Sunday
143,161098537.87594032
192,0.0
2,1, 1, 1, 0, 5, 0.00,60.00,Sunday
143,185368749.46218324
192,0.0
2,1, 1, 1, 0, 6, 0.00,60.00,Sunday
143,204747750.7473823
192,0.0
2,1, 1, 1, 0, 7, 0.00,60.00,Sunday
143,217147604.25523368
192,0.0
2,1, 1, 1, 0, 8, 0.00,60.00,Sunday
143,211784043.26329824
192,0.0
2,1, 1, 1, 0, 9, 0.00,60.00,Sunday
143,128415369.91411176
192,0.0
2,1, 1, 1, 0,10, 0.00,60.00,Sunday
143,18638826.000310108
192,22044598.12267838
2,1, 1, 1, 0,11, 0.00,60.00,Sunday
143,0.0
192,164314518.55967104
2,1, 1, 1, 0,12, 0.00,60.00,Sunday
143,0.0
192,299643346.4497305
2,1, 1, 1, 0,13, 0.00,60.00,Sunday
143,0.0
192,403342221.9819717
2,1, 1, 1, 0,14, 0.00,60.00,Sunday
143,0.0
192,474748579.8432715
2,1, 1, 1, 0,15, 0.00,60.00,Sunday
143,0.0
192,509363060.2891464
2,1, 1, 1, 0,16, 0.00,60.00,Sunday
143,0.0
192,494575518.4120076
2,1, 1, 1, 0,17, 0.00,60.00,Sunday
143,0.0
192,432397839.37126774
2,1, 1, 1, 0,18, 0.00,60.00,Sunday
143,1.7462298274040222e-8
192,307509203.3785291
2,1, 1, 1, 0,19, 0.00,60.00,Sunday
143,0.0
192,161455336.05895913
2,1, 1, 1, 0,20, 0.00,60.00,Sunday
143,0.0
192,64294869.53283914
2,1, 1, 1, 0,21, 0.00,60.00,Sunday
143,3126663.570576812
192,9791461.821410812
2,1, 1, 1, 0,22, 0.00,60.00,Sunday
143,38504398.62263062
192,0.0
2,1, 1, 1, 0,23, 0.00,60.00,Sunday
143,76322220.75632238
192,0.0
2,1, 1, 1, 0,24, 0.00,60.00,Sunday
143,93424431.15488261
192,0.0
2,2, 1, 2, 0, 1, 0.00,60.00,Monday
143,105373953.52830094
192,0.0
2,2, 1, 2, 0, 2, 0.00,60.00,Monday
143,120496629.1125349
192,0.0
2,2, 1, 2, 0, 3, 0.00,60.00,Monday
143,138008434.30111676
192,0.0
2,2, 1, 2, 0, 4, 0.00,60.00,Monday
143,154631473.45486736
192,0.0
2,2, 1, 2, 0, 5, 0.00,60.00,Monday
143,170982903.45185965
192,0.0
2,2, 1, 2, 0, 6, 0.00,60.00,Monday
143,180370435.06165332
192,0.0
2,2, 1, 2, 0, 7, 0.00,60.00,Monday
143,182464095.30085143
192,0.0
2,2, 1, 2, 0, 8, 0.00,60.00,Monday
143,175210147.0288372
192,0.0
2,2, 1, 2, 0, 9, 0.00,60.00,Monday
143,100403486.7254812
192,0.0
2,2, 1, 2, 0,10, 0.00,60.00,Monday
143,10766551.162378024
192,28695615.48647843
2,2, 1, 2, 0,11, 0.00,60.00,Monday
143,0.0
192,167991865.0238727
2,2, 1, 2, 0,12, 0.00,60.00,Monday
143,0.0
192,314194142.33827555
2,2, 1, 2, 0,13, 0.00,60.00,Monday
143,0.0
192,444634795.1166902
2,2, 1, 2, 0,14, 0.00,60.00,Monday
143,0.0
192,551871790.9171609
2,2, 1, 2, 0,15, 0.00,60.00,Monday
143,0.0
192,581021003.029353
2,2, 1, 2, 0,16, 0.00,60.00,Monday
143,0.0
192,543935926.8402939
2,2, 1, 2, 0,17, 0.00,60.00,Monday
143,0.0
192,455244641.130005
2,2, 1, 2, 0,18, 0.00,60.00,Monday
143,0.0
192,320000931.5925183
2,2, 1, 2, 0,19, 0.00,60.00,Monday
143,0.0
192,174007220.0998877
2,2, 1, 2, 0,20, 0.00,60.00,Monday
143,0.0
192,79198223.61701636
2,2, 1, 2, 0,21, 0.00,60.00,Monday
143,0.0
192,27369449.635152664
2,2, 1, 2, 0,22, 0.00,60.00,Monday
143,6524093.783412454
192,1215812.2788658827
2,2, 1, 2, 0,23, 0.00,60.00,Monday
143,32453147.088280313
192,0.0
2,2, 1, 2, 0,24, 0.00,60.00,Monday
143,50031247.91569997
192,0.0
2,3, 1, 3, 0, 1, 0.00,60.00,Tuesday
143,63051496.75323023
192,0.0
2,3, 1, 3, 0, 2, 0.00,60.00,Tuesday
143,80794836.64484498
192,0.0
2,3, 1, 3, 0, 3, 0.00,60.00,Tuesday
143,96839503.75188208
192,0.0
2,3, 1, 3, 0, 4, 0.00,60.00,Tuesday
143,113229295.6337497
192,0.0
2,3, 1, 3, 0, 5, 0.00,60.00,Tuesday
143,130970597.38468507
192,0.0
2,3, 1, 3, 0, 6, 0.00,60.00,Tuesday
143,140300835.8210272
192,0.0
2,3, 1, 3, 0, 7, 0.00,60.00,Tuesday
143,139633561.43304813
192,0.0
2,3, 1, 3, 0, 8, 0.00,60.00,Tuesday
143,127461533.37814765
192,0.0
2,3, 1, 3, 0, 9, 0.00,60.00,Tuesday
143,49284399.243802056
192,0.0
2,3, 1, 3, 0,10, 0.00,60.00,Tuesday
143,0.0
192,117624889.92061162
2,3, 1, 3, 0,11, 0.00,60.00,Tuesday
143,0.0
192,384205334.07630527
2,3, 1, 3, 0,12, 0.00,60.00,Tuesday
143,0.0
192,681760501.7596537
2,3, 1, 3, 0,13, 0.00,60.00,Tuesday
143,0.0
192,945772809.5739341
2,3, 1, 3, 0,14, 0.00,60.00,Tuesday
143,0.0
192,1148834353.7308762
2,3, 1, 3, 0,15, 0.00,60.00,Tuesday
143,0.0
192,1224414634.6162972
2,3, 1, 3, 0,16, 0.00,60.00,Tuesday
143,0.0
192,1163622580.318337
2,3, 1, 3, 0,17, 0.00,60.00,Tuesday
143,1.7462298274040222e-8
192,963053668.9059964
2,3, 1, 3, 0,18, 0.00,60.00,Tuesday
143,0.0
192,674391459.7383449
2,3, 1, 3, 0,19, 0.00,60.00,Tuesday
143,0.0
192,398609933.5987967
2,3, 1, 3, 0,20, 0.00,60.00,Tuesday
143,0.0
192,237033512.7421774
2,3, 1, 3, 0,21, 0.00,60.00,Tuesday
143,0.0
192,147263494.29220292
2,3, 1, 3, 0,22, 0.00,60.00,Tuesday
143,0.0
192,85656722.67226787
2,3, 1, 3, 0,23, 0.00,60.00,Tuesday
143,0.0
192,37972973.25743369
2,3, 1, 3, 0,24, 0.00,60.00,Tuesday
143,2746926.851062243
192,4817679.697152991
2,4, 1, 4, 0, 1, 0.00,60.00,Wednesday
143,23411052.3413626
192,0.0
2,4, 1, 4, 0, 2, 0.00,60.00,Wednesday
143,42357967.51834814
192,0.0
2,4, 1, 4, 0, 3, 0.00,60.00,Wednesday
143,52499437.308882274
192,0.0
2,4, 1, 4, 0, 4, 0.00,60.00,Wednesday
143,63353634.187782355
192,0.0
2,4, 1, 4, 0, 5, 0.00,60.00,Wednesday
143,78286008.67962535
192,0.0
2,4, 1, 4, 0, 6, 0.00,60.00,Wednesday
143,86806540.82923733
192,0.0
2,4, 1, 4, 0, 7, 0.00,60.00,Wednesday
143,91632654.8166599
192,0.0
2,4, 1, 4, 0, 8, 0.00,60.00,Wednesday
143,70377938.17803252
192,0.0
2,4, 1, 4, 0, 9, 0.00,60.00,Wednesday
143,40216688.3167188
192,0.0
2,4, 1, 4, 0,10, 0.00,60.00,Wednesday
143,1993506.152981334
192,38355264.5224069
2,4, 1, 4, 0,11, 0.00,60.00,Wednesday
143,0.0
192,197572660.54265314
2,4, 1, 4, 0,12, 0.00,60.00,Wednesday
143,0.0
192,348589300.75847346
2,4, 1, 4, 0,13, 0.00,60.00,Wednesday
143,0.0
192,468805295.57517177
2,4, 1, 4, 0,14, 0.00,60.00,Wednesday
143,1.7462298274040222e-8
192,564872015.9374557
2,4, 1, 4, 0,15, 0.00,60.00,Wednesday
143,1.7462298274040222e-8
192,589127820.2261276
2,4, 1, 4, 0,16, 0.00,60.00,Wednesday
143,0.0
192,552255096.4204526
2,4, 1, 4, 0,17, 0.00,60.00,Wednesday
143,0.0
192,464631720.63375306
2,4, 1, 4, 0,18, 0.00,60.00,Wednesday
143,8.731149137020111e-9
192,328106026.3895834
2,4, 1, 4, 0,19, 0.00,60.00,Wednesday
143,0.0
192,174869708.2583773
2,4, 1, 4, 0,20, 0.00,60.00,Wednesday
143,0.0
192,69846944.04012732
2,4, 1, 4, 0,21, 0.00,60.00,Wednesday
143,0.0
192,17265768.831868324
2,4, 1, 4, 0,22, 0.00,60.00,Wednesday
143,14034072.615233298
192,0.0
2,4, 1, 4, 0,23, 0.00,60.00,Wednesday
143,36672930.41075589
192,0.0
2,4, 1, 4, 0,24, 0.00,60.00,Wednesday
143,52735846.81653175
192,0.0
2,5, 1, 5, 0, 1, 0.00,60.00,Thursday
143,63143082.42410764
192,0.0
2,5, 1, 5, 0, 2, 0.00,60.00,Thursday
143,75379223.01242365
192,0.0
2,5, 1, 5, 0, 3, 0.00,60.00,Thursday
143,88999625.46833426
192,0.0
2,5, 1, 5, 0, 4, 0.00,60.00,Thursday
143,102456175.17057118
192,0.0
2,5, 1, 5, 0, 5, 0.00,60.00,Thursday
143,115407816.42156787
192,0.0
2,5, 1, 5, 0, 6, 0.00,60.00,Thursday
143,127833213.39540315
192,0.0
2,5, 1, 5, 0, 7, 0.00,60.00,Thursday
143,140419376.61575532
192,0.0
2,5, 1, 5, 0, 8, 0.00,60.00,Thursday
143,141550526.27143595
192,0.0
2,5, 1, 5, 0, 9, 0.00,60.00,Thursday
143,72417717.22139347
192,0.0
2,5, 1, 5, 0,10, 0.00,60.00,Thursday
143,2719769.357692497
192,46260052.700881675
2,5, 1, 5, 0,11, 0.00,60.00,Thursday
143,0.0
192,191728675.42791516
2,5, 1, 5, 0,12, 0.00,60.00,Thursday
143,0.0
192,342410741.86236286
2,5, 1, 5, 0,13, 0.00,60.00,Thursday
143,0.0
192,468927799.2655933
2,5, 1, 5, 0,14, 0.00,60.00,Thursday
143,0.0
192,563861083.7000344
2,5, 1, 5, 0,15, 0.00,60.00,Thursday
143,0.0
192,527817552.10270613
2,5, 1, 5, 0,16, 0.00,60.00,Thursday
143,0.0
192,405596508.0077522
2,5, 1, 5, 0,17, 0.00,60.00,Thursday
143,0.0
192,270417962.09186953
2,5, 1, 5, 0,18, 0.00,60.00,Thursday
143,0.0
192,192466225.36237684
2,5, 1, 5, 0,19, 0.00,60.00,Thursday
143,0.0
192,108313890.64310527
2,5, 1, 5, 0,20, 0.00,60.00,Thursday
143,0.0
192,30031972.25419632
2,5, 1, 5, 0,21, 0.00,60.00,Thursday
143,18506048.448460735
192,0.0
2,5, 1, 5, 0,22, 0.00,60.00,Thursday
143,46205148.895381756
192,0.0
2,5, 1, 5, 0,23, 0.00,60.00,Thursday
143,64407188.619822666
192,0.0
2,5, 1, 5, 0,24, 0.00,60.00,Thursday
143,77873742.42774767
192,0.0
2,6, 1, 6, 0, 1, 0.00,60.00,Friday
143,93613989.60063066
192,0.0
2,6, 1, 6, 0, 2, 0.00,60.00,Friday
143,112826687.55844846
192,0.0
2,6, 1, 6, 0, 3, 0.00,60.00,Friday
143,127584085.76764317
192,0.0
2,6, 1, 6, 0, 4, 0.00,60.00,Friday
143,143661133.4864383
192,0.0
2,6, 1, 6, 0, 5, 0.00,60.00,Friday
143,159129075.37647596
192,0.0
2,6, 1, 6, 0, 6, 0.00,60.00,Friday
143,171907231.56098083
192,0.0
2,6, 1, 6, 0, 7, 0.00,60.00,Friday
143,185943165.55536094
192,0.0
2,6, 1, 6, 0, 8, 0.00,60.00,Friday
143,188697612.2902051
192,0.0
2,6, 1, 6, 0, 9, 0.00,60.00,Friday
143,103913768.11263499
192,0.0
2,6, 1, 6, 0,10, 0.00,60.00,Friday
143,8458612.071185745
192,34654083.05169091
2,6, 1, 6, 0,11, 0.00,60.00,Friday
143,0.0
192,181321115.29091096
2,6, 1, 6, 0,12, 0.00,60.00,Friday
143,0.0
192,334334092.5179291
2,6, 1, 6, 0,13, 0.00,60.00,Friday
143,0.0
192,462456327.1152408
2,6, 1, 6, 0,14, 0.00,60.00,Friday
143,0.0
192,564903614.1884279
2,6, 1, 6, 0,15, 0.00,60.00,Friday
143,1.7462298274040222e-8
192,593622286.4992765
2,6, 1, 6, 0,16, 0.00,60.00,Friday
143,0.0
192,559293696.6528997
2,6, 1, 6, 0,17, 0.00,60.00,Friday
143,0.0
192,473960307.22020733
2,6, 1, 6, 0,18, 0.00,60.00,Friday
143,0.0
192,337984205.366741
2,6, 1, 6, 0,19, 0.00,60.00,Friday
143,0.0
192,184476482.71229294
2,6, 1, 6, 0,20, 0.00,60.00,Friday
143,0.0
192,78259114.5182253
2,6, 1, 6, 0,21, 0.00,60.00,Friday
143,0.0
192,20783641.919957425
2,6, 1, 6, 0,22, 0.00,60.00,Friday
143,14999361.353678208
192,0.0
2,6, 1, 6, 0,23, 0.00,60.00,Friday
143,44160266.371846944
192,0.0
2,6, 1, 6, 0,24, 0.00,60.00,Friday
143,62056988.4486839
192,0.0
2,7, 1, 7, 0, 1, 0.00,60.00,Saturday
143,76623911.7123793
192,0.0
2,7, 1, 7, 0, 2, 0.00,60.00,Saturday
143,95902348.83141097
192,0.0
2,7, 1, 7, 0, 3, 0.00,60.00,Saturday
143,117364010.54164347
192,0.0
2,7, 1, 7, 0, 4, 0.00,60.00,Saturday
143,142084116.3370647
192,0.0
2,7, 1, 7, 0, 5, 0.00,60.00,Saturday
143,173347080.6614484
192,0.0
2,7, 1, 7, 0, 6, 0.00,60.00,Saturday
143,176809548.03480154
192,0.0
2,7, 1, 7, 0, 7, 0.00,60.00,Saturday
143,155171847.2123828
192,0.0
2,7, 1, 7, 0, 8, 0.00,60.00,Saturday
143,126955050.46546118
192,0.0
2,7, 1, 7, 0, 9, 0.00,60.00,Saturday
143,55384883.71821208
192,0.0
2,7, 1, 7, 0,10, 0.00,60.00,Saturday
143,1284887.6573605
192,47917370.82103141
2,7, 1, 7, 0,11, 0.00,60.00,Saturday
143,0.0
192,186938943.2667319
2,7, 1, 7, 0,12, 0.00,60.00,Saturday
143,0.0
192,339751837.3160007
2,7, 1, 7, 0,13, 0.00,60.00,Saturday
143,0.0
192,477001473.90427244
2,7, 1, 7, 0,14, 0.00,60.00,Saturday
143,0.0
192,593210116.019356
2,7, 1, 7, 0,15, 0.00,60.00,Saturday
143,0.0
192,626677173.0540662
2,7, 1, 7, 0,16, 0.00,60.00,Saturday
143,0.0
192,587548181.9021497
2,7, 1, 7, 0,17, 0.00,60.00,Saturday
143,0.0
192,496782959.9695444
2,7, 1, 7, 0,18, 0.00,60.00,Saturday
143,0.0
192,349917570.706603
2,7, 1, 7, 0,19, 0.00,60.00,Saturday
143,0.0
192,191223943.46849358
2,7, 1, 7, 0,20, 0.00,60.00,Saturday
143,0.0
192,89192098.5064874
2,7, 1, 7, 0,21, 0.00,60.00,Saturday
143,0.0
192,31974422.45902869
2,7, 1, 7, 0,22, 0.00,60.00,Saturday
143,8760060.361676803
192,1542553.8561177931
2,7, 1, 7, 0,23, 0.00,60.00,Saturday
143,41967786.50017892
192,0.0
2,7, 1, 7, 0,24, 0.00,60.00,Saturday
143,65290327.12318897
192,0.0
2,8, 1, 8, 0, 1, 0.00,60.00,Sunday
143,79568253.66907442
192,0.0
2,8, 1, 8, 0, 2, 0.00,60.00,Sunday
143,96365913.65913804
192,0.0
2,8, 1, 8, 0, 3, 0.00,60.00,Sunday
143,114855185.10705519
192,0.0
2,8, 1, 8, 0, 4, 0.00,60.00,Sunday
143,133921502.40846862
192,0.0
2,8, 1, 8, 0, 5, 0.00,60.00,Sunday
143,154133944.94637
192,0.0
2,8, 1, 8, 0, 6, 0.00,60.00,Sunday
143,167080078.58983254
192,0.0
2,8, 1, 8, 0, 7, 0.00,60.00,Sunday
143,171960542.1781065
192,0.0
2,8, 1, 8, 0, 8, 0.00,60.00,Sunday
143,164117846.52518192
192,0.0
2,8, 1, 8, 0, 9, 0.00,60.00,Sunday
143,76411449.50824356
192,0.0
2,8, 1, 8, 0,10, 0.00,60.00,Sunday
143,0.0
192,101572106.75407529
2,8, 1, 8, 0,11, 0.00,60.00,Sunday
143,0.0
192,371727248.91702604
2,8, 1, 8, 0,12, 0.00,60.00,Sunday
143,0.0
192,669952222.1058846
2,8, 1, 8, 0,13, 0.00,60.00,Sunday
143,0.0
192,931930641.0279074
2,8, 1, 8, 0,14, 0.00,60.00,Sunday
143,0.0
192,1137005157.0890148
2,8, 1, 8, 0,15, 0.00,60.00,Sunday
143,0.0
192,1255450183.193077
2,8, 1, 8, 0,16, 0.00,60.00,Sunday
143,0.0
192,1251205504.0801494
2,8, 1, 8, 0,17, 0.00,60.00,Sunday
143,0.0
192,1115015180.546842
2,8, 1, 8, 0,18, 0.00,60.00,Sunday
143,0.0
192,842424600.8710748
2,8, 1, 8, 0,19, 0.00,60.00,Sunday
143,1.7462298274040222e-8
192,506406816.6752198
2,8, 1, 8, 0,20, 0.00,60.00,Sunday
143,0.0
192,292046044.8925538
2,8, 1, 8, 0,21, 0.00,60.00,Sunday
143,0.0
192,184476923.2515999
2,8, 1, 8, 0,22, 0.00,60.00,Sunday
143,0.0
192,109237248.74186899
2,8, 1, 8, 0,23, 0.00,60.00,Sunday
143,0.0
192,47858392.91869218
2,8, 1, 8, 0,24, 0.00,60.00,Sunday
143,1939932.0555411284
192,6448591.370269005
2,9, 1, 9, 0, 1, 0.00,60.00,Monday
143,31627731.606373973
192,0.0
2,9, 1, 9, 0, 2, 0.00,60.00,Monday
143,66557835.294563465
192,0.0
2,9, 1, 9, 0, 3, 0.00,60.00,Monday
143,86395979.08590737
192,0.0
2,9, 1, 9, 0, 4, 0.00,60.00,Monday
143,97866787.4495816
192,0.0
2,9, 1, 9, 0, 5, 0.00,60.00,Monday
143,109931359.94848037
192,0.0
2,9, 1, 9, 0, 6, 0.00,60.00,Monday
143,120543625.91742395
192,0.0
2,9, 1, 9, 0, 7, 0.00,60.00,Monday
143,131681833.84587595
192,0.0
2,9, 1, 9, 0, 8, 0.00,60.00,Monday
143,131193935.68542312
192,0.0
2,9, 1, 9, 0, 9, 0.00,60.00,Monday
143,63740574.90291009
192,0.0
2,9, 1, 9, 0,10, 0.00,60.00,Monday
143,0.0
192,74219521.79342934
2,9, 1, 9, 0,11, 0.00,60.00,Monday
143,0.0
192,254959118.77890998
2,9, 1, 9, 0,12, 0.00,60.00,Monday
143,0.0
192,444727833.2563297
2,9, 1, 9, 0,13, 0.00,60.00,Monday
143,0.0
192,626495152.3989327
2,9, 1, 9, 0,14, 0.00,60.00,Monday
143,0.0
192,762794832.2528132
2,9, 1, 9, 0,15, 0.00,60.00,Monday
143,0.0
192,782387129.9647784
2,9, 1, 9, 0,16, 0.00,60.00,Monday
143,0.0
192,725254424.9741277
2,9, 1, 9, 0,17, 0.00,60.00,Monday
143,0.0
192,607291054.0057518
2,9, 1, 9, 0,18, 0.00,60.00,Monday
143,0.0
192,463947248.0258397
2,9, 1, 9, 0,19, 0.00,60.00,Monday
143,0.0
192,281346046.85970145
2,9, 1, 9, 0,20, 0.00,60.00,Monday
143,0.0
192,155513373.35852683
2,9, 1, 9, 0,21, 0.00,60.00,Monday
143,0.0
192,86103807.94556688
2,9, 1, 9, 0,22, 0.00,60.00,Monday
143,0.0
192,25616725.11442617
2,9, 1, 9, 0,23, 0.00,60.00,Monday
143,29582881.850798987
192,0.0
2,9, 1, 9, 0,24, 0.00,60.00,Monday
143,62178576.26396048
192,0.0
2,10, 1,10, 0, 1, 0.00,60.00,Tuesday
143,79511311.08548208
192,0.0
2,10, 1,10, 0, 2, 0.00,60.00,Tuesday
143,94562125.44521111
192,0.0
2,10, 1,10, 0, 3, 0.00,60.00,Tuesday
143,106029797.20770146
192,0.0
2,10, 1,10, 0, 4, 0.00,60.00,Tuesday
143,121257296.67767605
192,0.0
2,10, 1,10, 0, 5, 0.00,60.00,Tuesday
143,135563153.70242193
192,0.0
2,10, 1,10, 0, 6, 0.00,60.00,Tuesday
143,135002230.61819544
192,0.0
2,10, 1,10, 0, 7, 0.00,60.00,Tuesday
143,119821908.74158323
192,0.0
2,10, 1,10, 0, 8, 0.00,60.00,Tuesday
143,97430421.87138471
192,0.0
2,10, 1,10, 0, 9, 0.00,60.00,Tuesday
143,42840543.72265236
192,0.0
2,10, 1,10, 0,10, 0.00,60.00,Tuesday
143,422378.8385997991
192,31251218.60860905
2,10, 1,10, 0,11, 0.00,60.00,Tuesday
143,0.0
192,148947236.26521242
2,10, 1,10, 0,12, 0.00,60.00,Tuesday
143,0.0
192,293994085.6101488
2,10, 1,10, 0,13, 0.00,60.00,Tuesday
143,0.0
192,421983493.58494484
2,10, 1,10, 0,14, 0.00,60.00,Tuesday
143,0.0
192,521076741.8470541
2,10, 1,10, 0,15, 0.00,60.00,Tuesday
143,0.0
192,563563016.7991427
2,10, 1,10, 0,16, 0.00,60.00,Tuesday
143,0.0
192,539573627.7245127
2,10, 1,10, 0,17, 0.00,60.00,Tuesday
143,0.0
192,459219508.2452272
2,10, 1,10, 0,18, 0.00,60.00,Tuesday
143,0.0
192,328908480.3171757
2,10, 1,10, 0,19, 0.00,60.00,Tuesday
143,0.0
192,182502981.8004011
2,10, 1,10, 0,20, 0.00,60.00,Tuesday
143,0.0
192,83922262.40637282
2,10, 1,10, 0,21, 0.00,60.00,Tuesday
143,0.0
192,25349595.632751
2,10, 1,10, 0,22, 0.00,60.00,Tuesday
143,21224626.51208569
192,0.0
2,10, 1,10, 0,23, 0.00,60.00,Tuesday
143,62049613.02879593
192,0.0
2,10, 1,10, 0,24, 0.00,60.00,Tuesday
143,79292578.96525379
192,0.0
2,11, 1,11, 0, 1, 0.00,60.00,Wednesday
143,85827468.60014969
192,0.0
2,11, 1,11, 0, 2, 0.00,60.00,Wednesday
143,96690141.34032488
192,0.0
2,11, 1,11, 0, 3, 0.00,60.00,Wednesday
143,104455442.51822762
192,0.0
2,11, 1,11, 0, 4, 0.00,60.00,Wednesday
143,110382831.35927197
192,0.0
2,11, 1,11, 0, 5, 0.00,60.00,Wednesday
143,115290050.63977413
192,0.0
2,11, 1,11, 0, 6, 0.00,60.00,Wednesday
143,108838813.90213548
192,0.0
2,11, 1,11, 0, 7, 0.00,60.00,Wednesday
143,97156737.14407738
192,0.0
2,11, 1,11, 0, 8, 0.00,60.00,Wednesday
143,75196440.44800457
192,0.0
2,11, 1,11, 0, 9, 0.00,60.00,Wednesday
143,19918930.059766263
192,808778.485021236
2,11, 1,11, 0,10, 0.00,60.00,Wednesday
143,0.0
192,69708934.7298227
2,11, 1,11, 0,11, 0.00,60.00,Wednesday
143,0.0
192,207942073.83069056
2,11, 1,11, 0,12, 0.00,60.00,Wednesday
143,0.0
192,346659286.5805984
2,11, 1,11, 0,13, 0.00,60.00,Wednesday
143,0.0
192,457428195.30373216
2,11, 1,11, 0,14, 0.00,60.00,Wednesday
143,0.0
192,542959145.5991482
2,11, 1,11, 0,15, 0.00,60.00,Wednesday
143,1.7462298274040222e-8
192,561510251.0619463
2,11, 1,11, 0,16, 0.00,60.00,Wednesday
143,0.0
192,523952406.01717895
2,11, 1,11, 0,17, 0.00,60.00,Wednesday
143,0.0
192,379005889.1773419
2,11, 1,11, 0,18, 0.00,60.00,Wednesday
143,0.0
192,259402372.50967765
2,11, 1,11, 0,19, 0.00,60.00,Wednesday
143,0.0
192,139240145.48224154
2,11, 1,11, 0,20, 0.00,60.00,Wednesday
143,245592.6533214748
192,27251981.12838536
2,11, 1,11, 0,21, 0.00,60.00,Wednesday
143,28566385.018768437
192,0.0
2,11, 1,11, 0,22, 0.00,60.00,Wednesday
143,68073218.4663812
192,0.0
2,11, 1,11, 0,23, 0.00,60.00,Wednesday
143,99587700.84591016
192,0.0
2,11, 1,11, 0,24, 0.00,60.00,Wednesday
143,113609878.26289245
192,0.0
2,12, 1,12, 0, 1, 0.00,60.00,Thursday
143,126006894.29350181
192,0.0
2,12, 1,12, 0, 2, 0.00,60.00,Thursday
143,141785185.08534402
192,0.0
2,12, 1,12, 0, 3, 0.00,60.00,Thursday
143,157988037.1362266
192,0.0
2,12, 1,12, 0, 4, 0.00,60.00,Thursday
143,168791107.82708082
192,0.0
2,12, 1,12, 0, 5, 0.00,60.00,Thursday
143,176662052.07927692
192,0.0
2,12, 1,12, 0, 6, 0.00,60.00,Thursday
143,175420350.65066016
192,0.0
2,12, 1,12, 0, 7, 0.00,60.00,Thursday
143,155557202.61655173
192,0.0
2,12, 1,12, 0, 8, 0.00,60.00,Thursday
143,121888878.73969322
192,0.0
2,12, 1,12, 0, 9, 0.00,60.00,Thursday
143,51872278.68418848
192,0.0
2,12, 1,12, 0,10, 0.00,60.00,Thursday
143,1385363.1064045706
192,48960114.245950006
2,12, 1,12, 0,11, 0.00,60.00,Thursday
143,0.0
192,189342920.28850362
2,12, 1,12, 0,12, 0.00,60.00,Thursday
143,0.0
192,336727343.0085949
2,12, 1,12, 0,13, 0.00,60.00,Thursday
143,0.0
192,461045412.38487744
2,12, 1,12, 0,14, 0.00,60.00,Thursday
143,0.0
192,559669544.2953618
2,12, 1,12, 0,15, 0.00,60.00,Thursday
143,0.0
192,590739918.5883355
2,12, 1,12, 0,16, 0.00,60.00,Thursday
143,0.0
192,565521907.7634002
2,12, 1,12, 0,17, 0.00,60.00,Thursday
143,0.0
192,497792987.94199896
2,12, 1,12, 0,18, 0.00,60.00,Thursday
143,0.0
192,407632046.35373473
2,12, 1,12, 0,19, 0.00,60.00,Thursday
143,0.0
192,242406589.92422011
2,12, 1,12, 0,20, 0.00,60.00,Thursday
143,0.0
192,118184570.78884089
2,12, 1,12, 0,21, 0.00,60.00,Thursday
143,0.0
192,51453808.71194044
2,12, 1,12, 0,22, 0.00,60.00,Thursday
143,4231270.794171094
192,6741589.863680961
2,12, 1,12, 0,23, 0.00,60.00,Thursday
143,41654606.867107704
192,0.0
2,12, 1,12, 0,24, 0.00,60.00,Thursday
143,72191668.1846081
192,0.0
2,13, 1,13, 0, 1, 0.00,60.00,Friday
143,89403829.25282943
192,0.0
2,13, 1,13, 0, 2, 0.00,60.00,Friday
143,109386807.97239056
192,0.0
2,13, 1,13, 0, 3, 0.00,60.00,Friday
143,132448221.70706344
192,0.0
2,13, 1,13, 0, 4, 0.00,60.00,Friday
143,155603216.5782078
192,0.0
2,13, 1,13, 0, 5, 0.00,60.00,Friday
143,177985002.31934243
192,0.0
2,13, 1,13, 0, 6, 0.00,60.00,Friday
143,170597924.64147672
192,0.0
2,13, 1,13, 0, 7, 0.00,60.00,Friday
143,144248967.37540105
192,0.0
2,13, 1,13, 0, 8, 0.00,60.00,Friday
143,107654852.57966493
192,0.0
2,13, 1,13, 0, 9, 0.00,60.00,Friday
143,31084848.189950734
192,378769.98553346266
2,13, 1,13, 0,10, 0.00,60.00,Friday
143,0.0
192,75964930.8333972
2,13, 1,13, 0,11, 0.00,60.00,Friday
143,0.0
192,206776329.65039483
2,13, 1,13, 0,12, 0.00,60.00,Friday
143,0.0
192,348324636.6986281
2,13, 1,13, 0,13, 0.00,60.00,Friday
143,0.0
192,469549347.13080406
2,13, 1,13, 0,14, 0.00,60.00,Friday
143,1.7462298274040222e-8
192,566046864.4949112
2,13, 1,13, 0,15, 0.00,60.00,Friday
143,0.0
192,594217333.2623212
2,13, 1,13, 0,16, 0.00,60.00,Friday
143,0.0
192,567867243.79843
2,13, 1,13, 0,17, 0.00,60.00,Friday
143,0.0
192,491628835.265022
2,13, 1,13, 0,18, 0.00,60.00,Friday
143,0.0
192,359950928.0443763
2,13, 1,13, 0,19, 0.00,60.00,Friday
143,0.0
192,207398119.83371487
2,13, 1,13, 0,20, 0.00,60.00,Friday
143,0.0
192,109374152.51242538
2,13, 1,13, 0,21, 0.00,60.00,Friday
143,0.0
192,50004354.67595636
2,13, 1,13, 0,22, 0.00,60.00,Friday
143,3819030.920093133
192,7079601.838860579
2,13, 1,13, 0,23, 0.00,60.00,Friday
143,38492796.91675775
192,0.0
2,13, 1,13, 0,24, 0.00,60.00,Friday
143,63528494.031892814
192,0.0
2,14, 1,14, 0, 1, 0.00,60.00,Saturday
143,73864385.13737674
192,0.0
2,14, 1,14, 0, 2, 0.00,60.00,Saturday
143,85567406.94428504
192,0.0
2,14, 1,14, 0, 3, 0.00,60.00,Saturday
143,97182195.86043082
192,0.0
2,14, 1,14, 0, 4, 0.00,60.00,Saturday
143,106478590.15559772
192,0.0
2,14, 1,14, 0, 5, 0.00,60.00,Saturday
143,116234854.00088492
192,0.0
2,14, 1,14, 0, 6, 0.00,60.00,Saturday
143,117052756.45074904
192,0.0
2,14, 1,14, 0, 7, 0.00,60.00,Saturday
143,111082100.190029
192,0.0
2,14, 1,14, 0, 8, 0.00,60.00,Saturday
143,100398835.74850239
192,0.0
2,14, 1,14, 0, 9, 0.00,60.00,Saturday
143,69075998.26566945
192,0.0
2,14, 1,14, 0,10, 0.00,60.00,Saturday
143,31457116.459312893
192,0.0
2,14, 1,14, 0,11, 0.00,60.00,Saturday
143,9799266.731439574
192,228382.949331452
2,14, 1,14, 0,12, 0.00,60.00,Saturday
143,0.0
192,45173047.04158728
2,14, 1,14, 0,13, 0.00,60.00,Saturday
143,0.0
192,137597953.3024992
2,14, 1,14, 0,14, 0.00,60.00,Saturday
143,0.0
192,230000998.84281915
2,14, 1,14, 0,15, 0.00,60.00,Saturday
143,0.0
192,309971919.1893013
2,14, 1,14, 0,16, 0.00,60.00,Saturday
143,0.0
192,347587183.2557248
2,14, 1,14, 0,17, 0.00,60.00,Saturday
143,0.0
192,323857831.20194006
2,14, 1,14, 0,18, 0.00,60.00,Saturday
143,0.0
192,230928306.24356422
2,14, 1,14, 0,19, 0.00,60.00,Saturday
143,0.0
192,106428364.09735893
2,14, 1,14, 0,20, 0.00,60.00,Saturday
143,233940.5890271533
192,22011104.791800044
2,14, 1,14, 0,21, 0.00,60.00,Saturday
143,24030564.451263055
192,0.0
2,14, 1,14, 0,22, 0.00,60.00,Saturday
143,51018916.627945185
192,0.0
2,14, 1,14, 0,23, 0.00,60.00,Saturday
143,69064783.54737517
192,0.0
2,14, 1,14, 0,24, 0.00,60.00,Saturday
143,82699282.27719277
192,0.0
2,15, 1,15, 0, 1, 0.00,60.00,Sunday
143,89128910.91173762
192,0.0
2,15, 1,15, 0, 2, 0.00,60.00,Sunday
143,94913210.92157784
192,0.0
2,15, 1,15, 0, 3, 0.00,60.00,Sunday
143,100940404.75501919
192,0.0
2,15, 1,15, 0, 4, 0.00,60.00,Sunday
143,104433645.60575746
192,0.0
2,15, 1,15, 0, 5, 0.00,60.00,Sunday
143,90803434.32788815
192,0.0
2,15, 1,15, 0, 6, 0.00,60.00,Sunday
143,89763300.99731317
192,0.0
2,15, 1,15, 0, 7, 0.00,60.00,Sunday
143,88338991.27431548
192,0.0
2,15, 1,15, 0, 8, 0.00,60.00,Sunday
143,68356189.13532892
192,0.0
2,15, 1,15, 0, 9, 0.00,60.00,Sunday
143,19140262.03527837
192,556030.2288260388
2,15, 1,15, 0,10, 0.00,60.00,Sunday
143,0.0
192,59701503.40208629
2,15, 1,15, 0,11, 0.00,60.00,Sunday
143,0.0
192,191421901.65070412
2,15, 1,15, 0,12, 0.00,60.00,Sunday
143,0.0
192,330247103.9957388
2,15, 1,15, 0,13, 0.00,60.00,Sunday
143,0.0
192,459959429.2748406
2,15, 1,15, 0,14, 0.00,60.00,Sunday
143,0.0
192,545278398.3785212
2,15, 1,15, 0,15, 0.00,60.00,Sunday
143,0.0
192,566871121.8769872
2,15, 1,15, 0,16, 0.00,60.00,Sunday
143,0.0
192,536948006.2922022
2,15, 1,15, 0,17, 0.00,60.00,Sunday
143,0.0
192,455224412.90655744
2,15, 1,15, 0,18, 0.00,60.00,Sunday
143,0.0
192,317802778.4903091
2,15, 1,15, 0,19, 0.00,60.00,Sunday
143,0.0
192,175672093.09008613
2,15, 1,15, 0,20, 0.00,60.00,Sunday
143,0.0
192,85117684.88881978
2,15, 1,15, 0,21, 0.00,60.00,Sunday
143,0.0
192,33055666.061381206
2,15, 1,15, 0,22, 0.00,60.00,Sunday
143,5687214.453966077
192,2242708.053598507
2,15, 1,15, 0,23, 0.00,60.00,Sunday
143,31984049.521957427
192,0.0
2,15, 1,15, 0,24, 0.00,60.00,Sunday
143,49439115.01953844
192,0.0
2,16, 1,16, 0, 1, 0.00,60.00,Monday
143,59496718.65706388
192,0.0
2,16, 1,16, 0, 2, 0.00,60.00,Monday
143,70400324.9392418
192,0.0
2,16, 1,16, 0, 3, 0.00,60.00,Monday
143,80683803.68163306
192,0.0
2,16, 1,16, 0, 4, 0.00,60.00,Monday
143,91663621.66618818
192,0.0
2,16, 1,16, 0, 5, 0.00,60.00,Monday
143,101759529.36105862
192,0.0
2,16, 1,16, 0, 6, 0.00,60.00,Monday
143,106982751.52703002
192,0.0
2,16, 1,16, 0, 7, 0.00,60.00,Monday
143,107664848.731973
192,0.0
2,16, 1,16, 0, 8, 0.00,60.00,Monday
143,104970494.26162189
192,0.0
2,16, 1,16, 0, 9, 0.00,60.00,Monday
143,86930820.04607305
192,0.0
2,16, 1,16, 0,10, 0.00,60.00,Monday
143,58760383.282093786
192,0.0
2,16, 1,16, 0,11, 0.00,60.00,Monday
143,33499945.842208333
192,0.0
2,16, 1,16, 0,12, 0.00,60.00,Monday
143,11678418.794188134
192,1625063.5614120057
2,16, 1,16, 0,13, 0.00,60.00,Monday
143,0.0
192,24874107.180732727
2,16, 1,16, 0,14, 0.00,60.00,Monday
143,0.0
192,46208701.06981577
2,16, 1,16, 0,15, 0.00,60.00,Monday
143,0.0
192,56759257.477811635
2,16, 1,16, 0,16, 0.00,60.00,Monday
143,0.0
192,52797119.83436593
2,16, 1,16, 0,17, 0.00,60.00,Monday
143,0.0
192,35759262.13743978
2,16, 1,16, 0,18, 0.00,60.00,Monday
143,998371.7745106196
192,11636440.56252409
2,16, 1,16, 0,19, 0.00,60.00,Monday
143,27027267.21353153
192,0.0
2,16, 1,16, 0,20, 0.00,60.00,Monday
143,56757761.45687014
192,0.0
2,16, 1,16, 0,21, 0.00,60.00,Monday
143,82989497.72155839
192,0.0
2,16, 1,16, 0,22, 0.00,60.00,Monday
143,108438091.89681876
192,0.0
2,16, 1,16, 0,23, 0.00,60.00,Monday
143,140966756.10734588
192,0.0
2,16, 1,16, 0,24, 0.00,60.00,Monday
143,160245861.60611317
192,0.0
2,17, 1,17, 0, 1, 0.00,60.00,Tuesday
143,164133837.50600863
192,0.0
2,17, 1,17, 0, 2, 0.00,60.00,Tuesday
143,165919885.3153664
192,0.0
2,17, 1,17, 0, 3, 0.00,60.00,Tuesday
143,165510020.99035248
192,0.0
2,17, 1,17, 0, 4, 0.00,60.00,Tuesday
143,165935922.04382622
192,0.0
2,17, 1,17, 0, 5, 0.00,60.00,Tuesday
143,166595472.65306196
192,0.0
2,17, 1,17, 0, 6, 0.00,60.00,Tuesday
143,154382315.9575099
192,0.0
2,17, 1,17, 0, 7, 0.00,60.00,Tuesday
143,134192763.83214054
192,0.0
2,17, 1,17, 0, 8, 0.00,60.00,Tuesday
143,110925449.21474476
192,0.0
2,17, 1,17, 0, 9, 0.00,60.00,Tuesday
143,68753083.17405736
192,0.0
2,17, 1,17, 0,10, 0.00,60.00,Tuesday
143,28863036.60452022
192,0.0
2,17, 1,17, 0,11, 0.00,60.00,Tuesday
143,13776393.616781805
192,0.0
2,17, 1,17, 0,12, 0.00,60.00,Tuesday
143,0.0
192,96699719.63775198
2,17, 1,17, 0,13, 0.00,60.00,Tuesday
143,0.0
192,311491647.4054514
2,17, 1,17, 0,14, 0.00,60.00,Tuesday
143,0.0
192,446161757.99649656
2,17, 1,17, 0,15, 0.00,60.00,Tuesday
143,0.0
192,499711344.90298784
2,17, 1,17, 0,16, 0.00,60.00,Tuesday
143,0.0
192,495213080.7052543
2,17, 1,17, 0,17, 0.00,60.00,Tuesday
143,0.0
192,437875339.1577845
2,17, 1,17, 0,18, 0.00,60.00,Tuesday
143,0.0
192,322083727.3938625
2,17, 1,17, 0,19, 0.00,60.00,Tuesday
143,0.0
192,179361020.67135465
2,17, 1,17, 0,20, 0.00,60.00,Tuesday
143,0.0
192,88327010.82148902
2,17, 1,17, 0,21, 0.00,60.00,Tuesday
143,0.0
192,35370737.94423715
2,17, 1,17, 0,22, 0.00,60.00,Tuesday
143,7341371.840249515
192,2422869.253863536
2,17, 1,17, 0,23, 0.00,60.00,Tuesday
143,39993171.4781389
192,0.0
2,17, 1,17, 0,24, 0.00,60.00,Tuesday
143,57367798.166282095
192,0.0
2,18, 1,18, 0, 1, 0.00,60.00,Wednesday
143,64283476.570761785
192,0.0
2,18, 1,18, 0, 2, 0.00,60.00,Wednesday
143,73733915.257825
192,0.0
2,18, 1,18, 0, 3, 0.00,60.00,Wednesday
143,83371377.6753293
192,0.0
2,18, 1,18, 0, 4, 0.00,60.00,Wednesday
143,89964956.7186459
192,0.0
2,18, 1,18, 0, 5, 0.00,60.00,Wednesday
143,83899317.53926444
192,0.0
2,18, 1,18, 0, 6, 0.00,60.00,Wednesday
143,96909088.88033494
192,0.0
2,18, 1,18, 0, 7, 0.00,60.00,Wednesday
143,121255250.82624774
192,0.0
2,18, 1,18, 0, 8, 0.00,60.00,Wednesday
143,130857511.24119292
192,0.0
2,18, 1,18, 0, 9, 0.00,60.00,Wednesday
143,126576784.91808112
192,0.0
2,18, 1,18, 0,10, 0.00,60.00,Wednesday
143,108914666.5091813
192,0.0
2,18, 1,18, 0,11, 0.00,60.00,Wednesday
143,64482583.0876814
192,0.0
2,18, 1,18, 0,12, 0.00,60.00,Wednesday
143,13976699.068775447
192,8862290.584075699
2,18, 1,18, 0,13, 0.00,60.00,Wednesday
143,0.0
192,102155320.71800512
2,18, 1,18, 0,14, 0.00,60.00,Wednesday
143,0.0
192,159594047.73865825
2,18, 1,18, 0,15, 0.00,60.00,Wednesday
143,0.0
192,171863989.7713547
2,18, 1,18, 0,16, 0.00,60.00,Wednesday
143,0.0
192,151745697.47966543
2,18, 1,18, 0,17, 0.00,60.00,Wednesday
143,0.0
192,108814463.39878829
2,18, 1,18, 0,18, 0.00,60.00,Wednesday
143,0.0
192,51374330.68064442
2,18, 1,18, 0,19, 0.00,60.00,Wednesday
143,13068798.3773184
192,3193304.383275533
2,18, 1,18, 0,20, 0.00,60.00,Wednesday
143,44229398.468167275
192,0.0
2,18, 1,18, 0,21, 0.00,60.00,Wednesday