Program Version,EnergyPlus, Version 24.1.0-9d7789a3ac, YMD=2025.04.30 08:58
1,5,Environment Title[],Latitude[deg],Longitude[deg],Time Zone[],Elevation[m]
2,8,Day of Simulation[],Month[],Day of Month[],DST Indicator[1=yes 0=no],Hour[],StartMinute[],EndMinute[],DayType
3,5,Cumulative Day of Simulation[],Month[],Day of Month[],DST Indicator[1=yes 0=no],DayType  ! When Daily Meters Requested
4,2,Cumulative Days of Simulation[],Month[]  ! When Monthly Meters Requested
5,1,Cumulative Days of Simulation[] ! When Run Period Meters Requested
6,1,Calendar Year of Simulation[] ! When Annual Meters Requested
192,1,DistrictCooling:Facility [J] !Hourly
143,1,DistrictHeatingWater:Facility [J] !Hourly
End of Data Dictionary
1,RUN PERIOD 1,  59.90,  10.62,   1.00,  17.00
2,1, 1, 1, 0, 1, 0.00,60.00,Sunday
143,817805524.3033379
192,0.0
2,1, 1, 1, 0, 2, 0.00,60.00,Sunday
143,889111924.5158004
192,0.0
2,1, 1, 1, 0, 3, 0.00,60.00,Sunday
143,848636174.5497648
192,0.0
2,1, 1, 1, 0, 4, 0.00,60.00,Sunday
143,815732352.8954015
192,0.0
2,1, 1, 1, 0, 5, 0.00,60.00,Sunday
143,793791814.7626185
192,0.0
2,1, 1, 1, 0, 6, 0.00,60.00,Sunday
143,781012756.5986285
192,0.0
2,1, 1, 1, 0, 7, 0.00,60.00,Sunday
143,777280838.3144526
192,0.0
2,1, 1, 1, 0, 8, 0.00,60.00,Sunday
143,774224235.3766173
192,0.0
2,1, 1, 1, 0, 9, 0.00,60.00,Sunday
143,766230619.0086241
192,0.0
2,1, 1, 1, 0,10, 0.00,60.00,Sunday
143,1079814339.415093
192,0.0
2,1, 1, 1, 0,11, 0.00,60.00,Sunday
143,984075459.4123001
192,0.0
2,1, 1, 1, 0,12, 0.00,60.00,Sunday
143,739857251.2714907
192,0.0
2,1, 1, 1, 0,13, 0.00,60.00,Sunday
143,727052244.0178142
192,0.0
2,1, 1, 1, 0,14, 0.00,60.00,Sunday
143,724301569.9760461
192,0.0
2,1, 1, 1, 0,15, 0.00,60.00,Sunday
143,727236968.8038701
192,0.0
2,1, 1, 1, 0,16, 0.00,60.00,Sunday
143,730316048.0375719
192,0.0
2,1, 1, 1, 0,17, 0.00,60.00,Sunday
143,730755368.2745092
192,0.0
2,1, 1, 1, 0,18, 0.00,60.00,Sunday
143,728657374.3463693
192,0.0
2,1, 1, 1, 0,19, 0.00,60.00,Sunday
143,725431070.0426939
192,0.0
2,1, 1, 1, 0,20, 0.00,60.00,Sunday
143,721030333.752601
192,0.0
2,1, 1, 1, 0,21, 0.00,60.00,Sunday
143,715663245.9648721
192,0.0
2,1, 1, 1, 0,22, 0.00,60.00,Sunday
143,709961700.7947128
192,0.0
2,1, 1, 1, 0,23, 0.00,60.00,Sunday
143,703190095.6956079
192,0.0
2,1, 1, 1, 0,24, 0.00,60.00,Sunday
143,696166274.8245565
192,0.0
2,2, 1, 2, 0, 1, 0.00,60.00,Monday
143,689455678.3317182
192,0.0
2,2, 1, 2, 0, 2, 0.00,60.00,Monday
143,680253414.4141879
192,0.0
2,2, 1, 2, 0, 3, 0.00,60.00,Monday
143,680413045.023683
192,0.0
2,2, 1, 2, 0, 4, 0.00,60.00,Monday
143,678485853.3429826
192,0.0
2,2, 1, 2, 0, 5, 0.00,60.00,Monday
143,681325764.8207089
192,0.0
2,2, 1, 2, 0, 6, 0.00,60.00,Monday
143,685828717.5505579
192,0.0
2,2, 1, 2, 0, 7, 0.00,60.00,Monday
143,688892937.154081
192,0.0
2,2, 1, 2, 0, 8, 0.00,60.00,Monday
143,693759116.9855963
192,0.0
2,2, 1, 2, 0, 9, 0.00,60.00,Monday
143,699078029.39374
192,0.0
2,2, 1, 2, 0,10, 0.00,60.00,Monday
143,702460809.7528341
192,0.0
2,2, 1, 2, 0,11, 0.00,60.00,Monday
143,698747586.9703069
192,0.0
2,2, 1, 2, 0,12, 0.00,60.00,Monday
143,690222491.8918493
192,0.0
2,2, 1, 2, 0,13, 0.00,60.00,Monday
143,683953552.7441369
192,0.0
2,2, 1, 2, 0,14, 0.00,60.00,Monday
143,675546377.9564719
192,0.0
2,2, 1, 2, 0,15, 0.00,60.00,Monday
143,661817517.7139432
192,0.0
2,2, 1, 2, 0,16, 0.00,60.00,Monday
143,647005257.1061525
192,0.0
2,2, 1, 2, 0,17, 0.00,60.00,Monday
143,641025336.7137141
192,0.0
2,2, 1, 2, 0,18, 0.00,60.00,Monday
143,643289807.1704073
192,0.0
2,2, 1, 2, 0,19, 0.00,60.00,Monday
143,645802258.6041079
192,0.0
2,2, 1, 2, 0,20, 0.00,60.00,Monday
143,653592373.1094906
192,0.0
2,2, 1, 2, 0,21, 0.00,60.00,Monday
143,657468964.4154093
192,0.0
2,2, 1, 2, 0,22, 0.00,60.00,Monday
143,659702628.7380364
192,0.0
2,2, 1, 2, 0,23, 0.00,60.00,Monday
143,689343996.9462079
192,0.0
2,2, 1, 2, 0,24, 0.00,60.00,Monday
143,736185495.5741736
192,0.0
2,3, 1, 3, 0, 1, 0.00,60.00,Tuesday
143,780687053.2877307
192,0.0
2,3, 1, 3, 0, 2, 0.00,60.00,Tuesday
143,789598795.34407
192,0.0
2,3, 1, 3, 0, 3, 0.00,60.00,Tuesday
143,768066117.6292015
192,0.0
2,3, 1, 3, 0, 4, 0.00,60.00,Tuesday
143,740417327.7236845
192,0.0
2,3, 1, 3, 0, 5, 0.00,60.00,Tuesday
143,730429770.9826069
192,0.0
2,3, 1, 3, 0, 6, 0.00,60.00,Tuesday
143,733175941.3153546
192,0.0
2,3, 1, 3, 0, 7, 0.00,60.00,Tuesday
143,736066182.9304072
192,0.0
2,3, 1, 3, 0, 8, 0.00,60.00,Tuesday
143,738728979.2548869
192,0.0
2,3, 1, 3, 0, 9, 0.00,60.00,Tuesday
143,740646674.3408232
192,0.0
2,3, 1, 3, 0,10, 0.00,60.00,Tuesday
143,741933101.4932303
192,0.0
2,3, 1, 3, 0,11, 0.00,60.00,Tuesday
143,716393383.5515739
192,0.0
2,3, 1, 3, 0,12, 0.00,60.00,Tuesday
143,681973120.3481687
192,0.0
2,3, 1, 3, 0,13, 0.00,60.00,Tuesday
143,654408395.6424141
192,0.0
2,3, 1, 3, 0,14, 0.00,60.00,Tuesday
143,651180182.8346272
192,0.0
2,3, 1, 3, 0,15, 0.00,60.00,Tuesday
143,672606729.0333606
192,0.0
2,3, 1, 3, 0,16, 0.00,60.00,Tuesday
143,696191966.8476161
192,0.0
2,3, 1, 3, 0,17, 0.00,60.00,Tuesday
143,705950471.7959578
192,0.0
2,3, 1, 3, 0,18, 0.00,60.00,Tuesday
143,714898107.9861686
192,0.0
2,3, 1, 3, 0,19, 0.00,60.00,Tuesday
143,721616022.7090273
192,0.0
2,3, 1, 3, 0,20, 0.00,60.00,Tuesday
143,733929429.6942217
192,0.0
2,3, 1, 3, 0,21, 0.00,60.00,Tuesday
143,753543222.9461967
192,0.0
2,3, 1, 3, 0,22, 0.00,60.00,Tuesday
143,775237468.2956125
192,0.0
2,3, 1, 3, 0,23, 0.00,60.00,Tuesday
143,793997848.3647525
192,0.0
2,3, 1, 3, 0,24, 0.00,60.00,Tuesday
143,809675252.102435
192,0.0
2,4, 1, 4, 0, 1, 0.00,60.00,Wednesday
143,826553849.8978841
192,0.0
2,4, 1, 4, 0, 2, 0.00,60.00,Wednesday
143,823362827.9044263
192,0.0
2,4, 1, 4, 0, 3, 0.00,60.00,Wednesday
143,804910211.5990429
192,0.0
2,4, 1, 4, 0, 4, 0.00,60.00,Wednesday
143,789077873.2659591
192,0.0
2,4, 1, 4, 0, 5, 0.00,60.00,Wednesday
143,772580664.9931319
192,0.0
2,4, 1, 4, 0, 6, 0.00,60.00,Wednesday
143,752509117.6628022
192,0.0
2,4, 1, 4, 0, 7, 0.00,60.00,Wednesday
143,731448693.7354171
192,0.0
2,4, 1, 4, 0, 8, 0.00,60.00,Wednesday
143,725140819.9246998
192,0.0
2,4, 1, 4, 0, 9, 0.00,60.00,Wednesday
143,738036650.4352287
192,0.0
2,4, 1, 4, 0,10, 0.00,60.00,Wednesday
143,736426087.8214077
192,0.0
2,4, 1, 4, 0,11, 0.00,60.00,Wednesday
143,711878362.9931828
192,0.0
2,4, 1, 4, 0,12, 0.00,60.00,Wednesday
143,672661188.015031
192,0.0
2,4, 1, 4, 0,13, 0.00,60.00,Wednesday
143,645893135.2392681
192,0.0
2,4, 1, 4, 0,14, 0.00,60.00,Wednesday
143,638345706.8220346
192,0.0
2,4, 1, 4, 0,15, 0.00,60.00,Wednesday
143,643145982.6540505
192,0.0
2,4, 1, 4, 0,16, 0.00,60.00,Wednesday
143,655083180.2849087
192,0.0
2,4, 1, 4, 0,17, 0.00,60.00,Wednesday
143,659809191.8224481
192,0.0
2,4, 1, 4, 0,18, 0.00,60.00,Wednesday
143,659061731.9785099
192,0.0
2,4, 1, 4, 0,19, 0.00,60.00,Wednesday
143,659963463.0480275
192,0.0
2,4, 1, 4, 0,20, 0.00,60.00,Wednesday
143,660119556.4430863
192,0.0
2,4, 1, 4, 0,21, 0.00,60.00,Wednesday
143,659886675.0769163
192,0.0
2,4, 1, 4, 0,22, 0.00,60.00,Wednesday
143,659567742.450328
192,0.0
2,4, 1, 4, 0,23, 0.00,60.00,Wednesday
143,664387955.1325723
192,0.0
2,4, 1, 4, 0,24, 0.00,60.00,Wednesday
143,674885056.6868293
192,0.0
2,5, 1, 5, 0, 1, 0.00,60.00,Thursday
143,689351434.9390388
192,0.0
2,5, 1, 5, 0, 2, 0.00,60.00,Thursday
143,697369807.9344978
192,0.0
2,5, 1, 5, 0, 3, 0.00,60.00,Thursday
143,698508867.3862892
192,0.0
2,5, 1, 5, 0, 4, 0.00,60.00,Thursday
143,702496274.0793761
192,0.0
2,5, 1, 5, 0, 5, 0.00,60.00,Thursday
143,700090656.1934845
192,0.0
2,5, 1, 5, 0, 6, 0.00,60.00,Thursday
143,691915818.7014422
192,0.0
2,5, 1, 5, 0, 7, 0.00,60.00,Thursday
143,684429057.2820947
192,0.0
2,5, 1, 5, 0, 8, 0.00,60.00,Thursday
143,685435303.6233454
192,0.0
2,5, 1, 5, 0, 9, 0.00,60.00,Thursday
143,691508267.6647234
192,0.0
2,5, 1, 5, 0,10, 0.00,60.00,Thursday
143,685414546.4181643
192,0.0
2,5, 1, 5, 0,11, 0.00,60.00,Thursday
143,664238135.913309
192,0.0
2,5, 1, 5, 0,12, 0.00,60.00,Thursday
143,643453758.1995835
192,0.0
2,5, 1, 5, 0,13, 0.00,60.00,Thursday
143,629037794.230957
192,0.0
2,5, 1, 5, 0,14, 0.00,60.00,Thursday
143,636144032.9666761
192,0.0
2,5, 1, 5, 0,15, 0.00,60.00,Thursday
143,656441372.3320374
192,0.0
2,5, 1, 5, 0,16, 0.00,60.00,Thursday
143,675594226.180265
192,0.0
2,5, 1, 5, 0,17, 0.00,60.00,Thursday
143,678699828.9048058
192,0.0
2,5, 1, 5, 0,18, 0.00,60.00,Thursday
143,669198538.3615459
192,0.0
2,5, 1, 5, 0,19, 0.00,60.00,Thursday
143,800673158.972981
192,0.0
2,5, 1, 5, 0,20, 0.00,60.00,Thursday
143,770945213.3109533
192,0.0
2,5, 1, 5, 0,21, 0.00,60.00,Thursday
143,666164099.4165893
192,0.0
2,5, 1, 5, 0,22, 0.00,60.00,Thursday
143,679393285.752906
192,0.0
2,5, 1, 5, 0,23, 0.00,60.00,Thursday
143,680833143.554262
192,0.0
2,5, 1, 5, 0,24, 0.00,60.00,Thursday
143,677773482.4410511
192,0.0
2,6, 1, 6, 0, 1, 0.00,60.00,Friday
143,673092701.0256042
192,0.0
2,6, 1, 6, 0, 2, 0.00,60.00,Friday
143,665511612.4373487
192,0.0
2,6, 1, 6, 0, 3, 0.00,60.00,Friday
143,654875468.2169025
192,0.0
2,6, 1, 6, 0, 4, 0.00,60.00,Friday
143,643472192.7020968
192,0.0
2,6, 1, 6, 0, 5, 0.00,60.00,Friday
143,645036426.2289724
192,0.0
2,6, 1, 6, 0, 6, 0.00,60.00,Friday
143,652073562.7754911
192,0.0
2,6, 1, 6, 0, 7, 0.00,60.00,Friday
143,657190330.0278049
192,0.0
2,6, 1, 6, 0, 8, 0.00,60.00,Friday
143,657839156.2455443
192,0.0
2,6, 1, 6, 0, 9, 0.00,60.00,Friday
143,652559911.3061286
192,0.0
2,6, 1, 6, 0,10, 0.00,60.00,Friday
143,646024500.8146921
192,0.0
2,6, 1, 6, 0,11, 0.00,60.00,Friday
143,639286182.0870283
192,0.0
2,6, 1, 6, 0,12, 0.00,60.00,Friday
143,643174706.7782754
192,0.0
2,6, 1, 6, 0,13, 0.00,60.00,Friday
143,813209463.7930181
192,0.0
2,6, 1, 6, 0,14, 0.00,60.00,Friday
143,778978799.2318
192,0.0
2,6, 1, 6, 0,15, 0.00,60.00,Friday
143,651453841.36525
192,0.0
2,6, 1, 6, 0,16, 0.00,60.00,Friday
143,820001367.5860972
192,0.0
2,6, 1, 6, 0,17, 0.00,60.00,Friday
143,780896876.7893325
192,0.0
2,6, 1, 6, 0,18, 0.00,60.00,Friday
143,638394059.2986829
192,0.0
2,6, 1, 6, 0,19, 0.00,60.00,Friday
143,827391797.2655706
192,0.0
2,6, 1, 6, 0,20, 0.00,60.00,Friday
143,781597101.0551085
192,0.0
2,6, 1, 6, 0,21, 0.00,60.00,Friday
143,633657395.0192082
192,0.0
2,6, 1, 6, 0,22, 0.00,60.00,Friday
143,839077444.6925614
192,0.0
2,6, 1, 6, 0,23, 0.00,60.00,Friday
143,802286818.8463304
192,0.0
2,6, 1, 6, 0,24, 0.00,60.00,Friday
143,667211552.684658
192,0.0
2,7, 1, 7, 0, 1, 0.00,60.00,Saturday
143,681050134.4743017
192,0.0
2,7, 1, 7, 0, 2, 0.00,60.00,Saturday
143,685292239.6969119
192,0.0
2,7, 1, 7, 0, 3, 0.00,60.00,Saturday
143,682317600.9729221
192,0.0
2,7, 1, 7, 0, 4, 0.00,60.00,Saturday
143,681041897.9353397
192,0.0
2,7, 1, 7, 0, 5, 0.00,60.00,Saturday
143,679471441.2732704
192,0.0
2,7, 1, 7, 0, 6, 0.00,60.00,Saturday
143,678670914.0521213
192,0.0
2,7, 1, 7, 0, 7, 0.00,60.00,Saturday
143,680542988.5292468
192,0.0
2,7, 1, 7, 0, 8, 0.00,60.00,Saturday
143,682700183.2869198
192,0.0
2,7, 1, 7, 0, 9, 0.00,60.00,Saturday
143,689215235.0068748
192,0.0
2,7, 1, 7, 0,10, 0.00,60.00,Saturday
143,692762264.0628072
192,0.0
2,7, 1, 7, 0,11, 0.00,60.00,Saturday
143,671457929.2693168
192,0.0
2,7, 1, 7, 0,12, 0.00,60.00,Saturday
143,650372876.1982039
192,0.0
2,7, 1, 7, 0,13, 0.00,60.00,Saturday
143,642483541.9140047
192,0.0
2,7, 1, 7, 0,14, 0.00,60.00,Saturday
143,648567499.1140172
192,0.0
2,7, 1, 7, 0,15, 0.00,60.00,Saturday
143,662647846.7132254
192,0.0
2,7, 1, 7, 0,16, 0.00,60.00,Saturday
143,677144279.8423779
192,0.0
2,7, 1, 7, 0,17, 0.00,60.00,Saturday
143,686006483.4698198
192,0.0
2,7, 1, 7, 0,18, 0.00,60.00,Saturday
143,684854094.0491335
192,0.0
2,7, 1, 7, 0,19, 0.00,60.00,Saturday
143,680961514.948114
192,0.0
2,7, 1, 7, 0,20, 0.00,60.00,Saturday
143,676674646.3847619
192,0.0
2,7, 1, 7, 0,21, 0.00,60.00,Saturday
143,667290388.962141
192,0.0
2,7, 1, 7, 0,22, 0.00,60.00,Saturday
143,660437574.1490903
192,0.0
2,7, 1, 7, 0,23, 0.00,60.00,Saturday
143,659926209.3609282
192,0.0
2,7, 1, 7, 0,24, 0.00,60.00,Saturday
143,662331680.8381982
192,0.0
2,8, 1, 8, 0, 1, 0.00,60.00,Sunday
143,665368835.5566757
192,0.0
2,8, 1, 8, 0, 2, 0.00,60.00,Sunday
143,667966962.9400563
192,0.0
2,8, 1, 8, 0, 3, 0.00,60.00,Sunday
143,668116464.0665039
192,0.0
2,8, 1, 8, 0, 4, 0.00,60.00,Sunday
143,669100035.622262
192,0.0
2,8, 1, 8, 0, 5, 0.00,60.00,Sunday
143,672420635.8434736
192,0.0
2,8, 1, 8, 0, 6, 0.00,60.00,Sunday
143,675904175.8596462
192,0.0
2,8, 1, 8, 0, 7, 0.00,60.00,Sunday
143,679641673.0197532
192,0.0
2,8, 1, 8, 0, 8, 0.00,60.00,Sunday
143,689650988.2578862
192,0.0
2,8, 1, 8, 0, 9, 0.00,60.00,Sunday
143,704287447.7071358
192,0.0
2,8, 1, 8, 0,10, 0.00,60.00,Sunday
143,717594295.8251259
192,0.0
2,8, 1, 8, 0,11, 0.00,60.00,Sunday
143,708827449.1876872
192,0.0
2,8, 1, 8, 0,12, 0.00,60.00,Sunday
143,685347418.2482876
192,0.0
2,8, 1, 8, 0,13, 0.00,60.00,Sunday
143,664526502.7042097
192,0.0
2,8, 1, 8, 0,14, 0.00,60.00,Sunday
143,667106974.1348107
192,0.0
2,8, 1, 8, 0,15, 0.00,60.00,Sunday
143,687048676.0125649
192,0.0
2,8, 1, 8, 0,16, 0.00,60.00,Sunday
143,709695039.0962198
192,0.0
2,8, 1, 8, 0,17, 0.00,60.00,Sunday
143,724060916.557745
192,0.0
2,8, 1, 8, 0,18, 0.00,60.00,Sunday
143,734559287.9489487
192,0.0
2,8, 1, 8, 0,19, 0.00,60.00,Sunday
143,741508283.5516366
192,0.0
2,8, 1, 8, 0,20, 0.00,60.00,Sunday
143,748891797.9827949
192,0.0
2,8, 1, 8, 0,21, 0.00,60.00,Sunday
143,757699168.2331674
192,0.0
2,8, 1, 8, 0,22, 0.00,60.00,Sunday
143,767889656.42702
192,0.0
2,8, 1, 8, 0,23, 0.00,60.00,Sunday
143,780207190.6842946
192,0.0
2,8, 1, 8, 0,24, 0.00,60.00,Sunday
143,793192503.0715092
192,0.0
2,9, 1, 9, 0, 1, 0.00,60.00,Monday
143,804938326.5473528
192,0.0
2,9, 1, 9, 0, 2, 0.00,60.00,Monday
143,808875318.8235368
192,0.0
2,9, 1, 9, 0, 3, 0.00,60.00,Monday
143,814514351.596888
192,0.0
2,9, 1, 9, 0, 4, 0.00,60.00,Monday
143,819565738.4932349
192,0.0
2,9, 1, 9, 0, 5, 0.00,60.00,Monday
143,823347394.6908549
192,0.0
2,9, 1, 9, 0, 6, 0.00,60.00,Monday
143,827110522.6157078
192,0.0
2,9, 1, 9, 0, 7, 0.00,60.00,Monday
143,825993458.4803606
192,0.0
2,9, 1, 9, 0, 8, 0.00,60.00,Monday
143,826912739.2245129
192,0.0
2,9, 1, 9, 0, 9, 0.00,60.00,Monday
143,825785917.3964486
192,0.0
2,9, 1, 9, 0,10, 0.00,60.00,Monday
143,823656166.3754053
192,0.0
2,9, 1, 9, 0,11, 0.00,60.00,Monday
143,797322559.370396
192,0.0
2,9, 1, 9, 0,12, 0.00,60.00,Monday
143,749584777.2547799
192,0.0
2,9, 1, 9, 0,13, 0.00,60.00,Monday
143,695261418.6114875
192,0.0
2,9, 1, 9, 0,14, 0.00,60.00,Monday
143,677062599.1343882
192,0.0
2,9, 1, 9, 0,15, 0.00,60.00,Monday
143,697304665.2324226
192,0.0
2,9, 1, 9, 0,16, 0.00,60.00,Monday
143,724807165.0796907
192,0.0
2,9, 1, 9, 0,17, 0.00,60.00,Monday
143,734098187.5637604
192,0.0
2,9, 1, 9, 0,18, 0.00,60.00,Monday
143,729633830.5955743
192,0.0
2,9, 1, 9, 0,19, 0.00,60.00,Monday
143,724561665.8766823
192,0.0
2,9, 1, 9, 0,20, 0.00,60.00,Monday
143,745360108.5363629
192,0.0
2,9, 1, 9, 0,21, 0.00,60.00,Monday
143,777055615.3522542
192,0.0
2,9, 1, 9, 0,22, 0.00,60.00,Monday
143,805875786.3148851
192,0.0
2,9, 1, 9, 0,23, 0.00,60.00,Monday
143,832071565.0633748
192,0.0
2,9, 1, 9, 0,24, 0.00,60.00,Monday
143,860278413.9429872
192,0.0
2,10, 1,10, 0, 1, 0.00,60.00,Tuesday
143,886737485.0044891
192,0.0
2,10, 1,10, 0, 2, 0.00,60.00,Tuesday
143,890886363.734298
192,0.0
2,10, 1,10, 0, 3, 0.00,60.00,Tuesday
143,877283158.2189432
192,0.0
2,10, 1,10, 0, 4, 0.00,60.00,Tuesday
143,864094211.4450988
192,0.0
2,10, 1,10, 0, 5, 0.00,60.00,Tuesday
143,852124336.5455431
192,0.0
2,10, 1,10, 0, 6, 0.00,60.00,Tuesday
143,840087931.2110782
192,0.0
2,10, 1,10, 0, 7, 0.00,60.00,Tuesday
143,821452364.0160923
192,0.0
2,10, 1,10, 0, 8, 0.00,60.00,Tuesday
143,817501485.1484449
192,0.0
2,10, 1,10, 0, 9, 0.00,60.00,Tuesday
143,822904988.4609876
192,0.0
2,10, 1,10, 0,10, 0.00,60.00,Tuesday
143,825925411.8549131
192,0.0
2,10, 1,10, 0,11, 0.00,60.00,Tuesday
143,816049609.5442443
192,0.0
2,10, 1,10, 0,12, 0.00,60.00,Tuesday
143,796959500.9097881
192,0.0
2,10, 1,10, 0,13, 0.00,60.00,Tuesday
143,780759262.0236231
192,0.0
2,10, 1,10, 0,14, 0.00,60.00,Tuesday
143,772592274.9466478
192,0.0
2,10, 1,10, 0,15, 0.00,60.00,Tuesday
143,771829863.5279312
192,0.0
2,10, 1,10, 0,16, 0.00,60.00,Tuesday
143,769832187.1669054
192,0.0
2,10, 1,10, 0,17, 0.00,60.00,Tuesday
143,773139443.366349
192,0.0
2,10, 1,10, 0,18, 0.00,60.00,Tuesday
143,785231187.3541083
192,0.0
2,10, 1,10, 0,19, 0.00,60.00,Tuesday
143,799748179.0453963
192,0.0
2,10, 1,10, 0,20, 0.00,60.00,Tuesday
143,812460142.242131
192,0.0
2,10, 1,10, 0,21, 0.00,60.00,Tuesday
143,821740712.3239433
192,0.0
2,10, 1,10, 0,22, 0.00,60.00,Tuesday
143,832362115.551864
192,0.0
2,10, 1,10, 0,23, 0.00,60.00,Tuesday
143,850805639.4681947
192,0.0
2,10, 1,10, 0,24, 0.00,60.00,Tuesday
143,875679832.5052342
192,0.0
2,11, 1,11, 0, 1, 0.00,60.00,Wednesday
143,901487471.4175242
192,0.0
2,11, 1,11, 0, 2, 0.00,60.00,Wednesday
143,916216977.6201757
192,0.0
2,11, 1,11, 0, 3, 0.00,60.00,Wednesday
143,925396388.0393825
192,0.0
2,11, 1,11, 0, 4, 0.00,60.00,Wednesday
143,935522842.5557873
192,0.0
2,11, 1,11, 0, 5, 0.00,60.00,Wednesday
143,945142297.4450965
192,0.0
2,11, 1,11, 0, 6, 0.00,60.00,Wednesday
143,954281691.9414183
192,0.0
2,11, 1,11, 0, 7, 0.00,60.00,Wednesday
143,964554404.1899434
192,0.0
2,11, 1,11, 0, 8, 0.00,60.00,Wednesday
143,965714961.0638683
192,0.0
2,11, 1,11, 0, 9, 0.00,60.00,Wednesday
143,961479191.357789
192,0.0
2,11, 1,11, 0,10, 0.00,60.00,Wednesday
143,951550391.2991287
192,0.0
2,11, 1,11, 0,11, 0.00,60.00,Wednesday
143,908101043.028025
192,0.0
2,11, 1,11, 0,12, 0.00,60.00,Wednesday
143,858879613.8277205
192,0.0
2,11, 1,11, 0,13, 0.00,60.00,Wednesday
143,829059130.3237898
192,0.0
2,11, 1,11, 0,14, 0.00,60.00,Wednesday
143,803731364.6719328
192,0.0
2,11, 1,11, 0,15, 0.00,60.00,Wednesday
143,788264209.4610668
192,0.0
2,11, 1,11, 0,16, 0.00,60.00,Wednesday
143,774958247.9839602
192,0.0
2,11, 1,11, 0,17, 0.00,60.00,Wednesday
143,767414778.2695313
192,0.0
2,11, 1,11, 0,18, 0.00,60.00,Wednesday
143,774867621.14291
192,0.0
2,11, 1,11, 0,19, 0.00,60.00,Wednesday
143,782400414.1268375
192,0.0
2,11, 1,11, 0,20, 0.00,60.00,Wednesday
143,787274204.9885454
192,0.0
2,11, 1,11, 0,21, 0.00,60.00,Wednesday
143,790377243.6890543
192,0.0
2,11, 1,11, 0,22, 0.00,60.00,Wednesday
143,791332045.6249458
192,0.0
2,11, 1,11, 0,23, 0.00,60.00,Wednesday
143,790306945.8998443
192,0.0
2,11, 1,11, 0,24, 0.00,60.00,Wednesday
143,785487515.2116832
192,0.0
2,12, 1,12, 0, 1, 0.00,60.00,Thursday
143,768800721.1810242
192,0.0
2,12, 1,12, 0, 2, 0.00,60.00,Thursday
143,782161057.2379416
192,0.0
2,12, 1,12, 0, 3, 0.00,60.00,Thursday
143,815787591.6922926
192,0.0
2,12, 1,12, 0, 4, 0.00,60.00,Thursday
143,842955852.9827716
192,0.0
2,12, 1,12, 0, 5, 0.00,60.00,Thursday
143,856605148.8218561
192,0.0
2,12, 1,12, 0, 6, 0.00,60.00,Thursday
143,863888762.3448251
192,0.0
2,12, 1,12, 0, 7, 0.00,60.00,Thursday
143,874555872.3852334
192,0.0
2,12, 1,12, 0, 8, 0.00,60.00,Thursday
143,880582441.619662
192,0.0
2,12, 1,12, 0, 9, 0.00,60.00,Thursday
143,885411923.4701532
192,0.0
2,12, 1,12, 0,10, 0.00,60.00,Thursday
143,883831329.6554536
192,0.0
2,12, 1,12, 0,11, 0.00,60.00,Thursday
143,846707126.8639302
192,0.0
2,12, 1,12, 0,12, 0.00,60.00,Thursday
143,798947419.0555921
192,0.0
2,12, 1,12, 0,13, 0.00,60.00,Thursday
143,776611557.9154892
192,0.0
2,12, 1,12, 0,14, 0.00,60.00,Thursday
143,774890245.3670803
192,0.0
2,12, 1,12, 0,15, 0.00,60.00,Thursday
143,789830597.4589006
192,0.0
2,12, 1,12, 0,16, 0.00,60.00,Thursday
143,818563918.3314972
192,0.0
2,12, 1,12, 0,17, 0.00,60.00,Thursday
143,838713673.8152087
192,0.0
2,12, 1,12, 0,18, 0.00,60.00,Thursday
143,863449224.5122153
192,0.0
2,12, 1,12, 0,19, 0.00,60.00,Thursday
143,893923002.0444593
192,0.0
2,12, 1,12, 0,20, 0.00,60.00,Thursday
143,909073214.3877791
192,0.0
2,12, 1,12, 0,21, 0.00,60.00,Thursday
143,912076684.2339252
192,0.0
2,12, 1,12, 0,22, 0.00,60.00,Thursday
143,915341429.2888727
192,0.0
2,12, 1,12, 0,23, 0.00,60.00,Thursday
143,922225105.3952671
192,0.0
2,12, 1,12, 0,24, 0.00,60.00,Thursday
143,933440639.0284637
192,0.0
2,13, 1,13, 0, 1, 0.00,60.00,Friday
143,945508621.6695528
192,0.0
2,13, 1,13, 0, 2, 0.00,60.00,Friday
143,953649426.3320327
192,0.0
2,13, 1,13, 0, 3, 0.00,60.00,Friday
143,959145668.0988922
192,0.0
2,13, 1,13, 0, 4, 0.00,60.00,Friday
143,971521690.3094178
192,0.0
2,13, 1,13, 0, 5, 0.00,60.00,Friday
143,986448027.6721345
192,0.0
2,13, 1,13, 0, 6, 0.00,60.00,Friday
143,1004512584.3775626
192,0.0
2,13, 1,13, 0, 7, 0.00,60.00,Friday
143,1021730922.9293073
192,0.0
2,13, 1,13, 0, 8, 0.00,60.00,Friday
143,1030370408.0403831
192,0.0
2,13, 1,13, 0, 9, 0.00,60.00,Friday
143,1030607094.752107
192,0.0
2,13, 1,13, 0,10, 0.00,60.00,Friday
143,1018954120.1141176
192,0.0
2,13, 1,13, 0,11, 0.00,60.00,Friday
143,962678791.7722702
192,0.0
2,13, 1,13, 0,12, 0.00,60.00,Friday
143,898413731.2575295
192,0.0
2,13, 1,13, 0,13, 0.00,60.00,Friday
143,858325333.0165495
192,0.0
2,13, 1,13, 0,14, 0.00,60.00,Friday
143,846960944.7507923
192,0.0
2,13, 1,13, 0,15, 0.00,60.00,Friday
143,863370886.3959926
192,0.0
2,13, 1,13, 0,16, 0.00,60.00,Friday
143,892550837.8110541
192,0.0
2,13, 1,13, 0,17, 0.00,60.00,Friday
143,913292749.8969773
192,0.0
2,13, 1,13, 0,18, 0.00,60.00,Friday
143,938842174.5980821
192,0.0
2,13, 1,13, 0,19, 0.00,60.00,Friday
143,967852859.9742217
192,0.0
2,13, 1,13, 0,20, 0.00,60.00,Friday
143,977962926.4451473
192,0.0
2,13, 1,13, 0,21, 0.00,60.00,Friday
143,972317724.770076
192,0.0
2,13, 1,13, 0,22, 0.00,60.00,Friday
143,970308701.4348779
192,0.0
2,13, 1,13, 0,23, 0.00,60.00,Friday
143,959159050.5681041
192,0.0
2,13, 1,13, 0,24, 0.00,60.00,Friday
143,941618558.8780003
192,0.0
2,14, 1,14, 0, 1, 0.00,60.00,Saturday
143,921501847.3294525
192,0.0
2,14, 1,14, 0, 2, 0.00,60.00,Saturday
143,920327490.0062603
192,0.0
2,14, 1,14, 0, 3, 0.00,60.00,Saturday
143,940839958.7004436
192,0.0
2,14, 1,14, 0, 4, 0.00,60.00,Saturday
143,956294104.6725584
192,0.0
2,14, 1,14, 0, 5, 0.00,60.00,Saturday
143,966841965.1941586
192,0.0
2,14, 1,14, 0, 6, 0.00,60.00,Saturday
143,977863933.534471
192,0.0
2,14, 1,14, 0, 7, 0.00,60.00,Saturday
143,989704930.2372658
192,0.0
2,14, 1,14, 0, 8, 0.00,60.00,Saturday
143,1001063924.3217325
192,0.0
2,14, 1,14, 0, 9, 0.00,60.00,Saturday
143,1012224452.1737738
192,0.0
2,14, 1,14, 0,10, 0.00,60.00,Saturday
143,1012194752.015624
192,0.0
2,14, 1,14, 0,11, 0.00,60.00,Saturday
143,961284935.5404865
192,0.0
2,14, 1,14, 0,12, 0.00,60.00,Saturday
143,899137920.4395013
192,0.0
2,14, 1,14, 0,13, 0.00,60.00,Saturday
143,861690900.8097986
192,0.0
2,14, 1,14, 0,14, 0.00,60.00,Saturday
143,855924299.6784211
192,0.0
2,14, 1,14, 0,15, 0.00,60.00,Saturday
143,876188383.8257599
192,0.0
2,14, 1,14, 0,16, 0.00,60.00,Saturday
143,911245047.6201758
192,0.0
2,14, 1,14, 0,17, 0.00,60.00,Saturday
143,930282551.373253
192,0.0
2,14, 1,14, 0,18, 0.00,60.00,Saturday
143,944862824.7791398
192,0.0
2,14, 1,14, 0,19, 0.00,60.00,Saturday
143,960157114.1276895
192,0.0
2,14, 1,14, 0,20, 0.00,60.00,Saturday
143,967313847.6291983
192,0.0
2,14, 1,14, 0,21, 0.00,60.00,Saturday
143,969432679.7681668
192,0.0
2,14, 1,14, 0,22, 0.00,60.00,Saturday
143,971742055.6117997
192,0.0
2,14, 1,14, 0,23, 0.00,60.00,Saturday
143,959677557.7292677
192,0.0
2,14, 1,14, 0,24, 0.00,60.00,Saturday
143,939513388.341671
192,0.0
2,15, 1,15, 0, 1, 0.00,60.00,Sunday
143,916842520.4429448
192,0.0
2,15, 1,15, 0, 2, 0.00,60.00,Sunday
143,906599312.1753656
192,0.0
2,15, 1,15, 0, 3, 0.00,60.00,Sunday
143,907989622.5114448
192,0.0
2,15, 1,15, 0, 4, 0.00,60.00,Sunday
143,910719964.0995297
192,0.0
2,15, 1,15, 0, 5, 0.00,60.00,Sunday
143,912489215.9017913
192,0.0
2,15, 1,15, 0, 6, 0.00,60.00,Sunday
143,913272560.3191881
192,0.0
2,15, 1,15, 0, 7, 0.00,60.00,Sunday
143,914962462.6698052
192,0.0
2,15, 1,15, 0, 8, 0.00,60.00,Sunday
143,922539969.3654184
192,0.0
2,15, 1,15, 0, 9, 0.00,60.00,Sunday
143,935176410.9212127
192,0.0
2,15, 1,15, 0,10, 0.00,60.00,Sunday
143,944078494.8094128
192,0.0
2,15, 1,15, 0,11, 0.00,60.00,Sunday
143,935069790.4549546
192,0.0
2,15, 1,15, 0,12, 0.00,60.00,Sunday
143,913495878.632722
192,0.0
2,15, 1,15, 0,13, 0.00,60.00,Sunday
143,903776616.8796165
192,0.0
2,15, 1,15, 0,14, 0.00,60.00,Sunday
143,898958462.303571
192,0.0
2,15, 1,15, 0,15, 0.00,60.00,Sunday
143,898029415.623897
192,0.0
2,15, 1,15, 0,16, 0.00,60.00,Sunday
143,897639647.358958
192,0.0
2,15, 1,15, 0,17, 0.00,60.00,Sunday
143,911310185.1449158
192,0.0
2,15, 1,15, 0,18, 0.00,60.00,Sunday
143,939142418.8058344
192,0.0
2,15, 1,15, 0,19, 0.00,60.00,Sunday
143,968286841.3310349
192,0.0
2,15, 1,15, 0,20, 0.00,60.00,Sunday
143,1000658248.2624061
192,0.0
2,15, 1,15, 0,21, 0.00,60.00,Sunday
143,1034204578.9380827
192,0.0
2,15, 1,15, 0,22, 0.00,60.00,Sunday
143,1065686472.6370037
192,0.0
2,15, 1,15, 0,23, 0.00,60.00,Sunday
143,1061894396.5771284
192,0.0
2,15, 1,15, 0,24, 0.00,60.00,Sunday
143,1035157788.8063388
192,0.0
2,16, 1,16, 0, 1, 0.00,60.00,Monday
143,1008254299.8437619
192,0.0
2,16, 1,16, 0, 2, 0.00,60.00,Monday
143,996682318.4019024
192,0.0
2,16, 1,16, 0, 3, 0.00,60.00,Monday
143,989627696.252733
192,0.0
2,16, 1,16, 0, 4, 0.00,60.00,Monday
143,982548527.6057911
192,0.0
2,16, 1,16, 0, 5, 0.00,60.00,Monday
143,985394746.8256081
192,0.0
2,16, 1,16, 0, 6, 0.00,60.00,Monday
143,990452377.675371
192,0.0
2,16, 1,16, 0, 7, 0.00,60.00,Monday
143,996176072.1341739
192,0.0
2,16, 1,16, 0, 8, 0.00,60.00,Monday
143,982093406.8628023
192,0.0
2,16, 1,16, 0, 9, 0.00,60.00,Monday
143,954631614.7319169
192,0.0
2,16, 1,16, 0,10, 0.00,60.00,Monday
143,931657952.0085863
192,0.0
2,16, 1,16, 0,11, 0.00,60.00,Monday
143,905348111.6768733
192,0.0
2,16, 1,16, 0,12, 0.00,60.00,Monday
143,879162587.6106341
192,0.0
2,16, 1,16, 0,13, 0.00,60.00,Monday
143,857599046.0540293
192,0.0
2,16, 1,16, 0,14, 0.00,60.00,Monday
143,849491932.4956399
192,0.0
2,16, 1,16, 0,15, 0.00,60.00,Monday
143,850148701.3480351
192,0.0
2,16, 1,16, 0,16, 0.00,60.00,Monday
143,853733637.8340261
192,0.0
2,16, 1,16, 0,17, 0.00,60.00,Monday
143,857762991.4561503
192,0.0
2,16, 1,16, 0,18, 0.00,60.00,Monday
143,856723291.1573879
192,0.0
2,16, 1,16, 0,19, 0.00,60.00,Monday
143,855413444.4753506
192,0.0
2,16, 1,16, 0,20, 0.00,60.00,Monday
143,855535385.9549851
192,0.0
2,16, 1,16, 0,21, 0.00,60.00,Monday
143,853386036.1877022
192,0.0
2,16, 1,16, 0,22, 0.00,60.00,Monday
143,851169681.0314325
192,0.0
2,16, 1,16, 0,23, 0.00,60.00,Monday
143,849658751.6064751
192,0.0
2,16, 1,16, 0,24, 0.00,60.00,Monday
143,849492865.2597867
192,0.0
2,17, 1,17, 0, 1, 0.00,60.00,Tuesday
143,849493231.4189363
192,0.0
2,17, 1,17, 0, 2, 0.00,60.00,Tuesday
143,853963512.9140496
192,0.0
2,17, 1,17, 0, 3, 0.00,60.00,Tuesday
143,861667524.6308136
192,0.0
2,17, 1,17, 0, 4, 0.00,60.00,Tuesday
143,869898259.7483199
192,0.0
2,17, 1,17, 0, 5, 0.00,60.00,Tuesday
143,879263277.8808081
192,0.0
2,17, 1,17, 0, 6, 0.00,60.00,Tuesday
143,889533538.3784993
192,0.0
2,17, 1,17, 0, 7, 0.00,60.00,Tuesday
143,899824403.6571327
192,0.0
2,17, 1,17, 0, 8, 0.00,60.00,Tuesday
143,904120646.6412061
192,0.0
2,17, 1,17, 0, 9, 0.00,60.00,Tuesday
143,902145550.3505373
192,0.0
2,17, 1,17, 0,10, 0.00,60.00,Tuesday
143,895894803.2539636
192,0.0
2,17, 1,17, 0,11, 0.00,60.00,Tuesday
143,878811748.6719053
192,0.0
2,17, 1,17, 0,12, 0.00,60.00,Tuesday
143,858992919.0915793
192,0.0
2,17, 1,17, 0,13, 0.00,60.00,Tuesday
143,842641899.1156592
192,0.0
2,17, 1,17, 0,14, 0.00,60.00,Tuesday
143,833006464.6203473
192,0.0
2,17, 1,17, 0,15, 0.00,60.00,Tuesday
143,829073587.8968495
192,0.0
2,17, 1,17, 0,16, 0.00,60.00,Tuesday
143,827623071.2239356
192,0.0
2,17, 1,17, 0,17, 0.00,60.00,Tuesday
143,821070257.4839848
192,0.0
2,17, 1,17, 0,18, 0.00,60.00,Tuesday
143,810498732.4890093
192,0.0
2,17, 1,17, 0,19, 0.00,60.00,Tuesday
143,799479302.4086328
192,0.0
2,17, 1,17, 0,20, 0.00,60.00,Tuesday
143,789314032.3836687
192,0.0
2,17, 1,17, 0,21, 0.00,60.00,Tuesday
143,790704138.1516565
192,0.0
2,17, 1,17, 0,22, 0.00,60.00,Tuesday
143,789837641.7017535
192,0.0
2,17, 1,17, 0,23, 0.00,60.00,Tuesday
143,785368917.069464
192,0.0
2,17, 1,17, 0,24, 0.00,60.00,Tuesday
143,783071963.2714844
192,0.0
2,18, 1,18, 0, 1, 0.00,60.00,Wednesday
143,781083005.22114
192,0.0
2,18, 1,18, 0, 2, 0.00,60.00,Wednesday
143,771596720.7564493
192,0.0
2,18, 1,18, 0, 3, 0.00,60.00,Wednesday
143,763282688.6763145
192,0.0
2,18, 1,18, 0, 4, 0.00,60.00,Wednesday
143,761485376.7341242
192,0.0
2,18, 1,18, 0, 5, 0.00,60.00,Wednesday
143,759762492.1037685
192,0.0
2,18, 1,18, 0, 6, 0.00,60.00,Wednesday
143,758484145.6403773
192,0.0
2,18, 1,18, 0, 7, 0.00,60.00,Wednesday
143,758136828.2525946
192,0.0
2,18, 1,18, 0, 8, 0.00,60.00,Wednesday
143,750247049.2444656
192,0.0
2,18, 1,18, 0, 9, 0.00,60.00,Wednesday
143,737010322.7898765
192,0.0
2,18, 1,18, 0,10, 0.00,60.00,Wednesday
143,718294019.9672414
192,0.0
2,18, 1,18, 0,11, 0.00,60.00,Wednesday
143,691251691.8053484
192,0.0
2,18, 1,18, 0,12, 0.00,60.00,Wednesday
143,668119123.7108514
192,0.0
2,18, 1,18, 0,13, 0.00,60.00,Wednesday
143,647642018.7725477
192,0.0
2,18, 1,18, 0,14, 0.00,60.00,Wednesday
143,644626540.0266687
192,0.0
2,18, 1,18, 0,15, 0.00,60.00,Wednesday
143,645913896.9662654
192,0.0
2,18, 1,18, 0,16, 0.00,60.00,Wednesday
143,648976719.9311312
192,0.0
2,18, 1,18, 0,17, 0.00,60.00,Wednesday
143,653277141.6969216
192,0.0
2,18, 1,18, 0,18, 0.00,60.00,Wednesday
143,655308568.5291116
192,0.0
2,18, 1,18, 0,19, 0.00,60.00,Wednesday
143,656544265.6419698
192,0.0
2,18, 1,18, 0,20, 0.00,60.00,Wednesday
143,658988520.7252254
192,0.0
2,18, 1,18, 0,21, 0.00,60.00,Wednesday
143,662832057.2591295
192,0.0
2,18, 1,18, 0,22, 0.00,60.00,Wednesday
143,667235917.4575726
192,0.0
2,18, 1,18, 0,23, 0.00,60.00,Wednesday
143,666677643.9201733
192,0.0
2,18, 1,18, 0,24, 0.00,60.00,Wednesday
143,660828979.4471662
192,0.0
2,19, 1,19, 0, 1, 0.00,60.00,Thursday
143,657313271.0896809
192,0.0
2,19, 1,19, 0, 2, 0.00,60.00,Thursday
143,656846649.8088545
192,0.0
2,19, 1,19, 0, 3, 0.00,60.00,Thursday
143,655428497.6306293
192,0.0
2,19, 1,19, 0, 4, 0.00,60.00,Thursday
143,653971246.8870156
192,0.0
2,19, 1,19, 0, 5, 0.00,60.00,Thursday
143,652261599.0992308
192,0.0
2,19, 1,19, 0, 6, 0.00,60.00,Thursday
143,648710157.8078184
192,0.0
2,19, 1,19, 0, 7, 0.00,60.00,Thursday
143,645687459.166359
192,0.0