Program Version,EnergyPlus, Version 24.1.0-9d7789a3ac, YMD=2025.04.29 02:18
1,5,Environment Title[],Latitude[deg],Longitude[deg],Time Zone[],Elevation[m]
2,8,Day of Simulation[],Month[],Day of Month[],DST Indicator[1=yes 0=no],Hour[],StartMinute[],EndMinute[],DayType
3,5,Cumulative Day of Simulation[],Month[],Day of Month[],DST Indicator[1=yes 0=no],DayType  ! When Daily Meters Requested
4,2,Cumulative Days of Simulation[],Month[]  ! When Monthly Meters Requested
5,1,Cumulative Days of Simulation[] ! When Run Period Meters Requested
6,1,Calendar Year of Simulation[] ! When Annual Meters Requested
192,1,DistrictCooling:Facility [J] !Hourly
143,1,DistrictHeatingWater:Facility [J] !Hourly
End of Data Dictionary
1,RUN PERIOD 1,   1.37, 103.98,   8.00,  16.00
2,1, 1, 1, 0, 1, 0.00,60.00,Sunday
143,105982273.95979103
192,0.0
2,1, 1, 1, 0, 2, 0.00,60.00,Sunday
143,119820502.02707706
192,0.0
2,1, 1, 1, 0, 3, 0.00,60.00,Sunday
143,137458061.12002367
192,0.0
2,1, 1, 1, 0, 4, 0.00,60.00,Sunday
143,161098645.8705903
192,0.0
2,1, 1, 1, 0, 5, 0.00,60.00,Sunday
143,185368860.08130953
192,0.0
2,1, 1, 1, 0, 6, 0.00,60.00,Sunday
143,204747863.64720806
192,0.0
2,1, 1, 1, 0, 7, 0.00,60.00,Sunday
143,217147717.96860638
192,0.0
2,1, 1, 1, 0, 8, 0.00,60.00,Sunday
143,211784158.66753897
192,0.0
2,1, 1, 1, 0, 9, 0.00,60.00,Sunday
143,128415477.96297194
192,0.0
2,1, 1, 1, 0,10, 0.00,60.00,Sunday
143,18638873.432988156
192,22044547.09274874
2,1, 1, 1, 0,11, 0.00,60.00,Sunday
143,0.0
192,164314418.4235512
2,1, 1, 1, 0,12, 0.00,60.00,Sunday
143,0.0
192,299643247.8865592
2,1, 1, 1, 0,13, 0.00,60.00,Sunday
143,0.0
192,403342222.3857994
2,1, 1, 1, 0,14, 0.00,60.00,Sunday
143,0.0
192,474748529.8026697
2,1, 1, 1, 0,15, 0.00,60.00,Sunday
143,5.2386894822120667e-8
192,509362917.46010774
2,1, 1, 1, 0,16, 0.00,60.00,Sunday
143,1.7462298274040222e-8
192,494575361.9437251
2,1, 1, 1, 0,17, 0.00,60.00,Sunday
143,0.0
192,432397698.2795144
2,1, 1, 1, 0,18, 0.00,60.00,Sunday
143,8.731149137020111e-9
192,307509084.01499426
2,1, 1, 1, 0,19, 0.00,60.00,Sunday
143,0.0
192,161455225.6974604
2,1, 1, 1, 0,20, 0.00,60.00,Sunday
143,2.1827872842550278e-9
192,64294753.76975192
2,1, 1, 1, 0,21, 0.00,60.00,Sunday
143,3126700.9293937124
192,9791385.255148547
2,1, 1, 1, 0,22, 0.00,60.00,Sunday
143,38504506.93297181
192,0.0
2,1, 1, 1, 0,23, 0.00,60.00,Sunday
143,76322317.61597233
192,0.0
2,1, 1, 1, 0,24, 0.00,60.00,Sunday
143,93424524.49419662
192,0.0
2,2, 1, 2, 0, 1, 0.00,60.00,Monday
143,105374050.30961736
192,0.0
2,2, 1, 2, 0, 2, 0.00,60.00,Monday
143,120496728.80155489
192,0.0
2,2, 1, 2, 0, 3, 0.00,60.00,Monday
143,138008536.1111859
192,0.0
2,2, 1, 2, 0, 4, 0.00,60.00,Monday
143,154631575.94175047
192,0.0
2,2, 1, 2, 0, 5, 0.00,60.00,Monday
143,170983007.4337627
192,0.0
2,2, 1, 2, 0, 6, 0.00,60.00,Monday
143,180370540.44682372
192,0.0
2,2, 1, 2, 0, 7, 0.00,60.00,Monday
143,182464199.49382398
192,0.0
2,2, 1, 2, 0, 8, 0.00,60.00,Monday
143,175210252.7481783
192,0.0
2,2, 1, 2, 0, 9, 0.00,60.00,Monday
143,100403582.07330906
192,0.0
2,2, 1, 2, 0,10, 0.00,60.00,Monday
143,10766573.201791521
192,28695550.24147192
2,2, 1, 2, 0,11, 0.00,60.00,Monday
143,0.0
192,167991763.01231888
2,2, 1, 2, 0,12, 0.00,60.00,Monday
143,0.0
192,314194041.26683134
2,2, 1, 2, 0,13, 0.00,60.00,Monday
143,0.0
192,444634809.9831835
2,2, 1, 2, 0,14, 0.00,60.00,Monday
143,0.0
192,551871792.5665176
2,2, 1, 2, 0,15, 0.00,60.00,Monday
143,0.0
192,581020895.9632405
2,2, 1, 2, 0,16, 0.00,60.00,Monday
143,0.0
192,543935801.242244
2,2, 1, 2, 0,17, 0.00,60.00,Monday
143,0.0
192,455244521.2830189
2,2, 1, 2, 0,18, 0.00,60.00,Monday
143,0.0
192,320000827.10439813
2,2, 1, 2, 0,19, 0.00,60.00,Monday
143,0.0
192,174007127.7802052
2,2, 1, 2, 0,20, 0.00,60.00,Monday
143,1.0913936421275139e-9
192,79198122.02476369
2,2, 1, 2, 0,21, 0.00,60.00,Monday
143,0.0
192,27369346.507154766
2,2, 1, 2, 0,22, 0.00,60.00,Monday
143,6524157.411429613
192,1215779.2364432951
2,2, 1, 2, 0,23, 0.00,60.00,Monday
143,32453237.51522983
192,0.0
2,2, 1, 2, 0,24, 0.00,60.00,Monday
143,50031327.47733272
192,0.0
2,3, 1, 3, 0, 1, 0.00,60.00,Tuesday
143,63051581.32673925
192,0.0
2,3, 1, 3, 0, 2, 0.00,60.00,Tuesday
143,80794926.23470053
192,0.0
2,3, 1, 3, 0, 3, 0.00,60.00,Tuesday
143,96839596.36260712
192,0.0
2,3, 1, 3, 0, 4, 0.00,60.00,Tuesday
143,113229390.50283575
192,0.0
2,3, 1, 3, 0, 5, 0.00,60.00,Tuesday
143,130970694.2352997
192,0.0
2,3, 1, 3, 0, 6, 0.00,60.00,Tuesday
143,140300933.59975034
192,0.0
2,3, 1, 3, 0, 7, 0.00,60.00,Tuesday
143,139633658.49596304
192,0.0
2,3, 1, 3, 0, 8, 0.00,60.00,Tuesday
143,127461630.63323115
192,0.0
2,3, 1, 3, 0, 9, 0.00,60.00,Tuesday
143,49284481.087083004
192,0.0
2,3, 1, 3, 0,10, 0.00,60.00,Tuesday
143,4.3655745685100555e-9
192,117624808.61533219
2,3, 1, 3, 0,11, 0.00,60.00,Tuesday
143,2.6193447411060333e-8
192,384205235.28875774
2,3, 1, 3, 0,12, 0.00,60.00,Tuesday
143,1.7462298274040222e-8
192,681760443.3225745
2,3, 1, 3, 0,13, 0.00,60.00,Tuesday
143,0.0
192,945773198.7670503
2,3, 1, 3, 0,14, 0.00,60.00,Tuesday
143,0.0
192,1148834780.2332292
2,3, 1, 3, 0,15, 0.00,60.00,Tuesday
143,0.0
192,1224414693.046544
2,3, 1, 3, 0,16, 0.00,60.00,Tuesday
143,0.0
192,1163622542.6811812
2,3, 1, 3, 0,17, 0.00,60.00,Tuesday
143,0.0
192,963053624.0243486
2,3, 1, 3, 0,18, 0.00,60.00,Tuesday
143,0.0
192,674391407.4516292
2,3, 1, 3, 0,19, 0.00,60.00,Tuesday
143,0.0
192,398609873.112939
2,3, 1, 3, 0,20, 0.00,60.00,Tuesday
143,0.0
192,237033447.0626686
2,3, 1, 3, 0,21, 0.00,60.00,Tuesday
143,0.0
192,147263420.26436305
2,3, 1, 3, 0,22, 0.00,60.00,Tuesday
143,0.0
192,85656642.50408703
2,3, 1, 3, 0,23, 0.00,60.00,Tuesday
143,0.0
192,37972889.3524306
2,3, 1, 3, 0,24, 0.00,60.00,Tuesday
143,2746969.033193775
192,4817637.313304097
2,4, 1, 4, 0, 1, 0.00,60.00,Wednesday
143,23411135.172655202
192,0.0
2,4, 1, 4, 0, 2, 0.00,60.00,Wednesday
143,42358045.40143269
192,0.0
2,4, 1, 4, 0, 3, 0.00,60.00,Wednesday
143,52499510.3180857
192,0.0
2,4, 1, 4, 0, 4, 0.00,60.00,Wednesday
143,63353710.174843386
192,0.0
2,4, 1, 4, 0, 5, 0.00,60.00,Wednesday
143,78286087.28813763
192,0.0
2,4, 1, 4, 0, 6, 0.00,60.00,Wednesday
143,86806621.55829076
192,0.0
2,4, 1, 4, 0, 7, 0.00,60.00,Wednesday
143,91632738.11180744
192,0.0
2,4, 1, 4, 0, 8, 0.00,60.00,Wednesday
143,70378021.5899872
192,0.0
2,4, 1, 4, 0, 9, 0.00,60.00,Wednesday
143,40216763.41820536
192,0.0
2,4, 1, 4, 0,10, 0.00,60.00,Wednesday
143,1993513.6430490294
192,38355206.42699168
2,4, 1, 4, 0,11, 0.00,60.00,Wednesday
143,0.0
192,197572569.90532386
2,4, 1, 4, 0,12, 0.00,60.00,Wednesday
143,0.0
192,348589208.3665917
2,4, 1, 4, 0,13, 0.00,60.00,Wednesday
143,0.0
192,468805319.24303174
2,4, 1, 4, 0,14, 0.00,60.00,Wednesday
143,1.7462298274040222e-8
192,564872025.4277745
2,4, 1, 4, 0,15, 0.00,60.00,Wednesday
143,0.0
192,589127719.0130607
2,4, 1, 4, 0,16, 0.00,60.00,Wednesday
143,0.0
192,552254974.4627659
2,4, 1, 4, 0,17, 0.00,60.00,Wednesday
143,0.0
192,464631602.91660357
2,4, 1, 4, 0,18, 0.00,60.00,Wednesday
143,8.731149137020111e-9
192,328105923.1798751
2,4, 1, 4, 0,19, 0.00,60.00,Wednesday
143,0.0
192,174869608.4983709
2,4, 1, 4, 0,20, 0.00,60.00,Wednesday
143,0.0
192,69846833.77308726
2,4, 1, 4, 0,21, 0.00,60.00,Wednesday
143,0.0
192,17265661.417657636
2,4, 1, 4, 0,22, 0.00,60.00,Wednesday
143,14034171.054084182
192,0.0
2,4, 1, 4, 0,23, 0.00,60.00,Wednesday
143,36673019.54368287
192,0.0
2,4, 1, 4, 0,24, 0.00,60.00,Wednesday
143,52735924.95532775
192,0.0
2,5, 1, 5, 0, 1, 0.00,60.00,Thursday
143,63143164.86891755
192,0.0
2,5, 1, 5, 0, 2, 0.00,60.00,Thursday
143,75379309.78037164
192,0.0
2,5, 1, 5, 0, 3, 0.00,60.00,Thursday
143,88999715.9050324
192,0.0
2,5, 1, 5, 0, 4, 0.00,60.00,Thursday
143,102456268.17590368
192,0.0
2,5, 1, 5, 0, 5, 0.00,60.00,Thursday
143,115407911.56835157
192,0.0
2,5, 1, 5, 0, 6, 0.00,60.00,Thursday
143,127833310.41026089
192,0.0
2,5, 1, 5, 0, 7, 0.00,60.00,Thursday
143,140419475.29813573
192,0.0
2,5, 1, 5, 0, 8, 0.00,60.00,Thursday
143,141550627.33786416
192,0.0
2,5, 1, 5, 0, 9, 0.00,60.00,Thursday
143,72417805.65530857
192,0.0
2,5, 1, 5, 0,10, 0.00,60.00,Thursday
143,2719783.9785447344
192,46259984.01734848
2,5, 1, 5, 0,11, 0.00,60.00,Thursday
143,0.0
192,191728581.18622226
2,5, 1, 5, 0,12, 0.00,60.00,Thursday
143,0.0
192,342410648.645363
2,5, 1, 5, 0,13, 0.00,60.00,Thursday
143,0.0
192,468927822.5903409
2,5, 1, 5, 0,14, 0.00,60.00,Thursday
143,0.0
192,563861097.6336865
2,5, 1, 5, 0,15, 0.00,60.00,Thursday
143,3.4924596548080444e-8
192,527817471.9411896
2,5, 1, 5, 0,16, 0.00,60.00,Thursday
143,0.0
192,405596425.45929426
2,5, 1, 5, 0,17, 0.00,60.00,Thursday
143,0.0
192,270417886.8098572
2,5, 1, 5, 0,18, 0.00,60.00,Thursday
143,0.0
192,192466152.59179133
2,5, 1, 5, 0,19, 0.00,60.00,Thursday
143,0.0
192,108313822.48503992
2,5, 1, 5, 0,20, 0.00,60.00,Thursday
143,0.0
192,30031884.484821275
2,5, 1, 5, 0,21, 0.00,60.00,Thursday
143,18506142.19279164
192,0.0
2,5, 1, 5, 0,22, 0.00,60.00,Thursday
143,46205235.21333429
192,0.0
2,5, 1, 5, 0,23, 0.00,60.00,Thursday
143,64407266.16518079
192,0.0
2,5, 1, 5, 0,24, 0.00,60.00,Thursday
143,77873827.79503776
192,0.0
2,6, 1, 6, 0, 1, 0.00,60.00,Friday
143,93614078.1602996
192,0.0
2,6, 1, 6, 0, 2, 0.00,60.00,Friday
143,112826779.77446505
192,0.0
2,6, 1, 6, 0, 3, 0.00,60.00,Friday
143,127584179.84688836
192,0.0
2,6, 1, 6, 0, 4, 0.00,60.00,Friday
143,143661229.41536632
192,0.0
2,6, 1, 6, 0, 5, 0.00,60.00,Friday
143,159129173.92092514
192,0.0
2,6, 1, 6, 0, 6, 0.00,60.00,Friday
143,171907332.36828795
192,0.0
2,6, 1, 6, 0, 7, 0.00,60.00,Friday
143,185943269.08774984
192,0.0
2,6, 1, 6, 0, 8, 0.00,60.00,Friday
143,188697720.31593418
192,0.0
2,6, 1, 6, 0, 9, 0.00,60.00,Friday
143,103913866.84921654
192,0.0
2,6, 1, 6, 0,10, 0.00,60.00,Friday
143,8458636.566995597
192,34654026.69724196
2,6, 1, 6, 0,11, 0.00,60.00,Friday
143,0.0
192,181321022.5799684
2,6, 1, 6, 0,12, 0.00,60.00,Friday
143,0.0
192,334333998.2453817
2,6, 1, 6, 0,13, 0.00,60.00,Friday
143,0.0
192,462456349.5277591
2,6, 1, 6, 0,14, 0.00,60.00,Friday
143,1.7462298274040222e-8
192,564903620.5974151
2,6, 1, 6, 0,15, 0.00,60.00,Friday
143,1.7462298274040222e-8
192,593622182.2225153
2,6, 1, 6, 0,16, 0.00,60.00,Friday
143,1.7462298274040222e-8
192,559293574.8560684
2,6, 1, 6, 0,17, 0.00,60.00,Friday
143,0.0
192,473960192.4042969
2,6, 1, 6, 0,18, 0.00,60.00,Friday
143,0.0
192,337984104.65351194
2,6, 1, 6, 0,19, 0.00,60.00,Friday
143,0.0
192,184476392.47259697
2,6, 1, 6, 0,20, 0.00,60.00,Friday
143,0.0
192,78259010.3860587
2,6, 1, 6, 0,21, 0.00,60.00,Friday
143,0.0
192,20783535.639055505
2,6, 1, 6, 0,22, 0.00,60.00,Friday
143,14999460.966030462
192,0.0
2,6, 1, 6, 0,23, 0.00,60.00,Friday
143,44160359.00595942
192,0.0
2,6, 1, 6, 0,24, 0.00,60.00,Friday
143,62057069.97332874
192,0.0
2,7, 1, 7, 0, 1, 0.00,60.00,Saturday
143,76623999.56792763
192,0.0
2,7, 1, 7, 0, 2, 0.00,60.00,Saturday
143,95902442.85127166
192,0.0
2,7, 1, 7, 0, 3, 0.00,60.00,Saturday
143,117364108.95252895
192,0.0
2,7, 1, 7, 0, 4, 0.00,60.00,Saturday
143,142084217.55534482
192,0.0
2,7, 1, 7, 0, 5, 0.00,60.00,Saturday
143,173347185.9183975
192,0.0
2,7, 1, 7, 0, 6, 0.00,60.00,Saturday
143,176809652.6621073
192,0.0
2,7, 1, 7, 0, 7, 0.00,60.00,Saturday
143,155171946.89376342
192,0.0
2,7, 1, 7, 0, 8, 0.00,60.00,Saturday
143,126955147.40520087
192,0.0
2,7, 1, 7, 0, 9, 0.00,60.00,Saturday
143,55384963.992738545
192,0.0
2,7, 1, 7, 0,10, 0.00,60.00,Saturday
143,1284900.7608214393
192,47917307.33642632
2,7, 1, 7, 0,11, 0.00,60.00,Saturday
143,0.0
192,186938850.29392803
2,7, 1, 7, 0,12, 0.00,60.00,Saturday
143,0.0
192,339751744.20248795
2,7, 1, 7, 0,13, 0.00,60.00,Saturday
143,0.0
192,477001499.92298275
2,7, 1, 7, 0,14, 0.00,60.00,Saturday
143,0.0
192,593210126.5269512
2,7, 1, 7, 0,15, 0.00,60.00,Saturday
143,1.7462298274040222e-8
192,626677071.7385542
2,7, 1, 7, 0,16, 0.00,60.00,Saturday
143,3.4924596548080444e-8
192,587548062.2304473
2,7, 1, 7, 0,17, 0.00,60.00,Saturday
143,0.0
192,496782846.05053985
2,7, 1, 7, 0,18, 0.00,60.00,Saturday
143,0.0
192,349917468.77998775
2,7, 1, 7, 0,19, 0.00,60.00,Saturday
143,4.3655745685100555e-9
192,191223854.01178566
2,7, 1, 7, 0,20, 0.00,60.00,Saturday
143,0.0
192,89191999.31689455
2,7, 1, 7, 0,21, 0.00,60.00,Saturday
143,0.0
192,31974319.151737668
2,7, 1, 7, 0,22, 0.00,60.00,Saturday
143,8760125.680014955
192,1542520.5850466643
2,7, 1, 7, 0,23, 0.00,60.00,Saturday
143,41967880.931578346
192,0.0
2,7, 1, 7, 0,24, 0.00,60.00,Saturday
143,65290408.36470123
192,0.0
2,8, 1, 8, 0, 1, 0.00,60.00,Sunday
143,79568340.50723806
192,0.0
2,8, 1, 8, 0, 2, 0.00,60.00,Sunday
143,96366003.81721705
192,0.0
2,8, 1, 8, 0, 3, 0.00,60.00,Sunday
143,114855279.40408044
192,0.0
2,8, 1, 8, 0, 4, 0.00,60.00,Sunday
143,133921601.28863132
192,0.0
2,8, 1, 8, 0, 5, 0.00,60.00,Sunday
143,154134048.7948059
192,0.0
2,8, 1, 8, 0, 6, 0.00,60.00,Sunday
143,167080184.89568767
192,0.0
2,8, 1, 8, 0, 7, 0.00,60.00,Sunday
143,171960648.06695205
192,0.0
2,8, 1, 8, 0, 8, 0.00,60.00,Sunday
143,164117952.81258243
192,0.0
2,8, 1, 8, 0, 9, 0.00,60.00,Sunday
143,76411544.6506755
192,0.0
2,8, 1, 8, 0,10, 0.00,60.00,Sunday
143,0.0
192,101572020.13571878
2,8, 1, 8, 0,11, 0.00,60.00,Sunday
143,0.0
192,371727150.26368034
2,8, 1, 8, 0,12, 0.00,60.00,Sunday
143,0.0
192,669952161.8308223
2,8, 1, 8, 0,13, 0.00,60.00,Sunday
143,8.731149137020111e-8
192,931931024.9449201
2,8, 1, 8, 0,14, 0.00,60.00,Sunday
143,3.4924596548080444e-8
192,1137005578.3189626
2,8, 1, 8, 0,15, 0.00,60.00,Sunday
143,6.984919309616089e-8
192,1255450239.998915
2,8, 1, 8, 0,16, 0.00,60.00,Sunday
143,3.4924596548080444e-8
192,1251205462.1507967
2,8, 1, 8, 0,17, 0.00,60.00,Sunday
143,0.0
192,1115015138.0598044
2,8, 1, 8, 0,18, 0.00,60.00,Sunday
143,0.0
192,842424556.654969
2,8, 1, 8, 0,19, 0.00,60.00,Sunday
143,0.0
192,506406757.0903676
2,8, 1, 8, 0,20, 0.00,60.00,Sunday
143,0.0
192,292045975.49481684
2,8, 1, 8, 0,21, 0.00,60.00,Sunday
143,0.0
192,184476842.988596
2,8, 1, 8, 0,22, 0.00,60.00,Sunday
143,0.0
192,109237164.37401378
2,8, 1, 8, 0,23, 0.00,60.00,Sunday
143,0.0
192,47858301.294819236
2,8, 1, 8, 0,24, 0.00,60.00,Sunday
143,1939961.9400794622
192,6448530.711459476
2,9, 1, 9, 0, 1, 0.00,60.00,Monday
143,31627821.602126382
192,0.0
2,9, 1, 9, 0, 2, 0.00,60.00,Monday
143,66557923.90942919
192,0.0
2,9, 1, 9, 0, 3, 0.00,60.00,Monday
143,86396060.34889714
192,0.0
2,9, 1, 9, 0, 4, 0.00,60.00,Monday
143,97866873.75780457
192,0.0
2,9, 1, 9, 0, 5, 0.00,60.00,Monday
143,109931450.17972085
192,0.0
2,9, 1, 9, 0, 6, 0.00,60.00,Monday
143,120543718.88907385
192,0.0
2,9, 1, 9, 0, 7, 0.00,60.00,Monday
143,131681929.2754572
192,0.0
2,9, 1, 9, 0, 8, 0.00,60.00,Monday
143,131194033.88912852
192,0.0
2,9, 1, 9, 0, 9, 0.00,60.00,Monday
143,63740661.746162504
192,0.0
2,9, 1, 9, 0,10, 0.00,60.00,Monday
143,0.0
192,74219439.42354868
2,9, 1, 9, 0,11, 0.00,60.00,Monday
143,0.0
192,254959025.05440617
2,9, 1, 9, 0,12, 0.00,60.00,Monday
143,0.0
192,444727751.2189617
2,9, 1, 9, 0,13, 0.00,60.00,Monday
143,0.0
192,626495302.5785565
2,9, 1, 9, 0,14, 0.00,60.00,Monday
143,1.7462298274040222e-8
192,762794964.7003562
2,9, 1, 9, 0,15, 0.00,60.00,Monday
143,1.7462298274040222e-8
192,782387073.255376
2,9, 1, 9, 0,16, 0.00,60.00,Monday
143,1.7462298274040222e-8
192,725254331.5542107
2,9, 1, 9, 0,17, 0.00,60.00,Monday
143,1.7462298274040222e-8
192,607290961.3767278
2,9, 1, 9, 0,18, 0.00,60.00,Monday
143,0.0
192,463947161.20357925
2,9, 1, 9, 0,19, 0.00,60.00,Monday
143,1.7462298274040222e-8
192,281345968.29895353
2,9, 1, 9, 0,20, 0.00,60.00,Monday
143,0.0
192,155513301.97006598
2,9, 1, 9, 0,21, 0.00,60.00,Monday
143,0.0
192,86103726.87814616
2,9, 1, 9, 0,22, 0.00,60.00,Monday
143,0.0
192,25616634.12910152
2,9, 1, 9, 0,23, 0.00,60.00,Monday
143,29582979.503530867
192,0.0
2,9, 1, 9, 0,24, 0.00,60.00,Monday
143,62178668.43440397
192,0.0
2,10, 1,10, 0, 1, 0.00,60.00,Tuesday
143,79511392.50647742
192,0.0
2,10, 1,10, 0, 2, 0.00,60.00,Tuesday
143,94562211.91248
192,0.0
2,10, 1,10, 0, 3, 0.00,60.00,Tuesday
143,106029885.46289581
192,0.0
2,10, 1,10, 0, 4, 0.00,60.00,Tuesday
143,121257387.38223772
192,0.0
2,10, 1,10, 0, 5, 0.00,60.00,Tuesday
143,135563246.13876998
192,0.0
2,10, 1,10, 0, 6, 0.00,60.00,Tuesday
143,135002321.68974814
192,0.0
2,10, 1,10, 0, 7, 0.00,60.00,Tuesday
143,119821994.8725009
192,0.0
2,10, 1,10, 0, 8, 0.00,60.00,Tuesday
143,97430503.7127231
192,0.0
2,10, 1,10, 0, 9, 0.00,60.00,Tuesday
143,42840607.676156975
192,0.0
2,10, 1,10, 0,10, 0.00,60.00,Tuesday
143,422385.8817156405
192,31251178.336830363
2,10, 1,10, 0,11, 0.00,60.00,Tuesday
143,0.0
192,148947158.93595195
2,10, 1,10, 0,12, 0.00,60.00,Tuesday
143,0.0
192,293994007.5892345
2,10, 1,10, 0,13, 0.00,60.00,Tuesday
143,0.0
192,421983502.9628892
2,10, 1,10, 0,14, 0.00,60.00,Tuesday
143,0.0
192,521076708.42293113
2,10, 1,10, 0,15, 0.00,60.00,Tuesday
143,1.7462298274040222e-8
192,563562899.3104802
2,10, 1,10, 0,16, 0.00,60.00,Tuesday
143,0.0
192,539573496.0933051
2,10, 1,10, 0,17, 0.00,60.00,Tuesday
143,8.731149137020111e-9
192,459219384.9311648
2,10, 1,10, 0,18, 0.00,60.00,Tuesday
143,0.0
192,328908373.3825221
2,10, 1,10, 0,19, 0.00,60.00,Tuesday
143,0.0
192,182502890.6578518
2,10, 1,10, 0,20, 0.00,60.00,Tuesday
143,0.0
192,83922164.50974402
2,10, 1,10, 0,21, 0.00,60.00,Tuesday
143,0.0
192,25349492.32699356
2,10, 1,10, 0,22, 0.00,60.00,Tuesday
143,21224728.545119006
192,0.0
2,10, 1,10, 0,23, 0.00,60.00,Tuesday
143,62049709.17611341
192,0.0
2,10, 1,10, 0,24, 0.00,60.00,Tuesday
143,79292664.18052563
192,0.0
2,11, 1,11, 0, 1, 0.00,60.00,Wednesday
143,85827557.66835766
192,0.0
2,11, 1,11, 0, 2, 0.00,60.00,Wednesday
143,96690232.59819287
192,0.0
2,11, 1,11, 0, 3, 0.00,60.00,Wednesday
143,104455534.7196934
192,0.0
2,11, 1,11, 0, 4, 0.00,60.00,Wednesday
143,110382923.98573712
192,0.0
2,11, 1,11, 0, 5, 0.00,60.00,Wednesday
143,115290143.58627275
192,0.0
2,11, 1,11, 0, 6, 0.00,60.00,Wednesday
143,108838903.88069464
192,0.0
2,11, 1,11, 0, 7, 0.00,60.00,Wednesday
143,97156822.5354988
192,0.0
2,11, 1,11, 0, 8, 0.00,60.00,Wednesday
143,75196520.13086575
192,0.0
2,11, 1,11, 0, 9, 0.00,60.00,Wednesday
143,19918976.295625042
192,808774.049116779
2,11, 1,11, 0,10, 0.00,60.00,Wednesday
143,0.0
192,69708868.47457388
2,11, 1,11, 0,11, 0.00,60.00,Wednesday
143,0.0
192,207941979.15753368
2,11, 1,11, 0,12, 0.00,60.00,Wednesday
143,0.0
192,346659189.2801042
2,11, 1,11, 0,13, 0.00,60.00,Wednesday
143,0.0
192,457428210.841627
2,11, 1,11, 0,14, 0.00,60.00,Wednesday
143,0.0
192,542959138.4655889
2,11, 1,11, 0,15, 0.00,60.00,Wednesday
143,0.0
192,561510126.8523439
2,11, 1,11, 0,16, 0.00,60.00,Wednesday
143,1.7462298274040222e-8
192,523952261.416986
2,11, 1,11, 0,17, 0.00,60.00,Wednesday
143,0.0
192,379005730.65503085
2,11, 1,11, 0,18, 0.00,60.00,Wednesday
143,8.731149137020111e-9
192,259402229.04012078
2,11, 1,11, 0,19, 0.00,60.00,Wednesday
143,0.0
192,139240018.09101665
2,11, 1,11, 0,20, 0.00,60.00,Wednesday
143,245613.37262895008
192,27251875.035668265
2,11, 1,11, 0,21, 0.00,60.00,Wednesday
143,28566504.109342396
192,0.0
2,11, 1,11, 0,22, 0.00,60.00,Wednesday
143,68073329.58531962
192,0.0
2,11, 1,11, 0,23, 0.00,60.00,Wednesday
143,99587799.67410019
192,0.0
2,11, 1,11, 0,24, 0.00,60.00,Wednesday
143,113609973.01123905
192,0.0
2,12, 1,12, 0, 1, 0.00,60.00,Thursday
143,126006991.14924997
192,0.0
2,12, 1,12, 0, 2, 0.00,60.00,Thursday
143,141785284.21411783
192,0.0
2,12, 1,12, 0, 3, 0.00,60.00,Thursday
143,157988138.57327265
192,0.0
2,12, 1,12, 0, 4, 0.00,60.00,Thursday
143,168791210.51462457
192,0.0
2,12, 1,12, 0, 5, 0.00,60.00,Thursday
143,176662155.22921836
192,0.0
2,12, 1,12, 0, 6, 0.00,60.00,Thursday
143,175420451.69393492
192,0.0
2,12, 1,12, 0, 7, 0.00,60.00,Thursday
143,155557297.1499891
192,0.0
2,12, 1,12, 0, 8, 0.00,60.00,Thursday
143,121888967.54858224
192,0.0
2,12, 1,12, 0, 9, 0.00,60.00,Thursday
143,51872351.554581985
192,0.0
2,12, 1,12, 0,10, 0.00,60.00,Thursday
143,1385378.4983762535
192,48960053.23566459
2,12, 1,12, 0,11, 0.00,60.00,Thursday
143,0.0
192,189342824.60118175
2,12, 1,12, 0,12, 0.00,60.00,Thursday
143,0.0
192,336727244.7283062
2,12, 1,12, 0,13, 0.00,60.00,Thursday
143,0.0
192,461045430.22189504
2,12, 1,12, 0,14, 0.00,60.00,Thursday
143,0.0
192,559669542.0105202
2,12, 1,12, 0,15, 0.00,60.00,Thursday
143,0.0
192,590739803.5361589
2,12, 1,12, 0,16, 0.00,60.00,Thursday
143,0.0
192,565521775.5037205
2,12, 1,12, 0,17, 0.00,60.00,Thursday
143,1.7462298274040222e-8
192,497792862.414973
2,12, 1,12, 0,18, 0.00,60.00,Thursday
143,2.6193447411060333e-8
192,407631934.6969633
2,12, 1,12, 0,19, 0.00,60.00,Thursday
143,0.0
192,242406494.06904972
2,12, 1,12, 0,20, 0.00,60.00,Thursday
143,0.0
192,118184475.50145037
2,12, 1,12, 0,21, 0.00,60.00,Thursday
143,0.0
192,51453706.592680156
2,12, 1,12, 0,22, 0.00,60.00,Thursday
143,4231322.606030059
192,6741537.419645175
2,12, 1,12, 0,23, 0.00,60.00,Thursday
143,41654708.84874081
192,0.0
2,12, 1,12, 0,24, 0.00,60.00,Thursday
143,72191758.85129502
192,0.0
2,13, 1,13, 0, 1, 0.00,60.00,Friday
143,89403920.895839
192,0.0
2,13, 1,13, 0, 2, 0.00,60.00,Friday
143,109386904.01189539
192,0.0
2,13, 1,13, 0, 3, 0.00,60.00,Friday
143,132448321.28979604
192,0.0
2,13, 1,13, 0, 4, 0.00,60.00,Friday
143,155603319.15477952
192,0.0
2,13, 1,13, 0, 5, 0.00,60.00,Friday
143,177985108.43575433
192,0.0
2,13, 1,13, 0, 6, 0.00,60.00,Friday
143,170598026.9344962
192,0.0
2,13, 1,13, 0, 7, 0.00,60.00,Friday
143,144249061.49218765
192,0.0
2,13, 1,13, 0, 8, 0.00,60.00,Friday
143,107655026.08762074
192,0.0
2,13, 1,13, 0, 9, 0.00,60.00,Friday
143,31084919.885479435
192,378754.0279981774
2,13, 1,13, 0,10, 0.00,60.00,Friday
143,0.0
192,75964832.9064636
2,13, 1,13, 0,11, 0.00,60.00,Friday
143,0.0
192,206776208.02476424
2,13, 1,13, 0,12, 0.00,60.00,Friday
143,0.0
192,348324517.28040147
2,13, 1,13, 0,13, 0.00,60.00,Friday
143,0.0
192,469549346.7087219
2,13, 1,13, 0,14, 0.00,60.00,Friday
143,0.0
192,566046851.5260358
2,13, 1,13, 0,15, 0.00,60.00,Friday
143,0.0
192,594217212.9260789
2,13, 1,13, 0,16, 0.00,60.00,Friday
143,0.0
192,567867109.1660857
2,13, 1,13, 0,17, 0.00,60.00,Friday
143,0.0
192,491628710.7523823
2,13, 1,13, 0,18, 0.00,60.00,Friday
143,0.0
192,359950819.99004257
2,13, 1,13, 0,19, 0.00,60.00,Friday
143,0.0
192,207398027.48179507
2,13, 1,13, 0,20, 0.00,60.00,Friday
143,0.0
192,109374066.55301246
2,13, 1,13, 0,21, 0.00,60.00,Friday
143,0.0
192,50004263.93300416
2,13, 1,13, 0,22, 0.00,60.00,Friday
143,3819079.712132598
192,7079552.821759047
2,13, 1,13, 0,23, 0.00,60.00,Friday
143,38492893.379400894
192,0.0
2,13, 1,13, 0,24, 0.00,60.00,Friday
143,63528579.5610169
192,0.0
2,14, 1,14, 0, 1, 0.00,60.00,Saturday
143,73864471.77940229
192,0.0
2,14, 1,14, 0, 2, 0.00,60.00,Saturday
143,85567496.85396585
192,0.0
2,14, 1,14, 0, 3, 0.00,60.00,Saturday
143,97182288.25262076
192,0.0
2,14, 1,14, 0, 4, 0.00,60.00,Saturday
143,106478683.9754929
192,0.0
2,14, 1,14, 0, 5, 0.00,60.00,Saturday
143,116234949.32957256
192,0.0
2,14, 1,14, 0, 6, 0.00,60.00,Saturday
143,117052850.89986585
192,0.0
2,14, 1,14, 0, 7, 0.00,60.00,Saturday
143,111082191.8101349
192,0.0
2,14, 1,14, 0, 8, 0.00,60.00,Saturday
143,100398925.37165013
192,0.0
2,14, 1,14, 0, 9, 0.00,60.00,Saturday
143,69076084.34486166
192,0.0
2,14, 1,14, 0,10, 0.00,60.00,Saturday
143,31457188.179594047
192,0.0
2,14, 1,14, 0,11, 0.00,60.00,Saturday
143,9799323.352375396
192,228368.648202022
2,14, 1,14, 0,12, 0.00,60.00,Saturday
143,0.0
192,45172965.54957916
2,14, 1,14, 0,13, 0.00,60.00,Saturday
143,0.0
192,137597892.05856255
2,14, 1,14, 0,14, 0.00,60.00,Saturday
143,0.0
192,230000918.90037543
2,14, 1,14, 0,15, 0.00,60.00,Saturday
143,0.0
192,309971792.1772688
2,14, 1,14, 0,16, 0.00,60.00,Saturday
143,0.0
192,347587042.5618411
2,14, 1,14, 0,17, 0.00,60.00,Saturday
143,0.0
192,323857697.9213195
2,14, 1,14, 0,18, 0.00,60.00,Saturday
143,0.0
192,230928192.2452451
2,14, 1,14, 0,19, 0.00,60.00,Saturday
143,0.0
192,106428248.42743081
2,14, 1,14, 0,20, 0.00,60.00,Saturday
143,233959.93466363288
192,22011005.585217495
2,14, 1,14, 0,21, 0.00,60.00,Saturday
143,24030674.418908633
192,0.0
2,14, 1,14, 0,22, 0.00,60.00,Saturday
143,51019010.45115357
192,0.0
2,14, 1,14, 0,23, 0.00,60.00,Saturday
143,69064871.7221907
192,0.0
2,14, 1,14, 0,24, 0.00,60.00,Saturday
143,82699375.57570717
192,0.0
2,15, 1,15, 0, 1, 0.00,60.00,Sunday
143,89129005.12893945
192,0.0
2,15, 1,15, 0, 2, 0.00,60.00,Sunday
143,94913305.64946721
192,0.0
2,15, 1,15, 0, 3, 0.00,60.00,Sunday
143,100940500.42760786
192,0.0
2,15, 1,15, 0, 4, 0.00,60.00,Sunday
143,104433741.5306444
192,0.0
2,15, 1,15, 0, 5, 0.00,60.00,Sunday
143,90803529.84808226
192,0.0
2,15, 1,15, 0, 6, 0.00,60.00,Sunday
143,89763395.3376666
192,0.0
2,15, 1,15, 0, 7, 0.00,60.00,Sunday
143,88339080.8009575
192,0.0
2,15, 1,15, 0, 8, 0.00,60.00,Sunday
143,68356271.98698674
192,0.0
2,15, 1,15, 0, 9, 0.00,60.00,Sunday
143,19140312.919603195
192,556024.435915761
2,15, 1,15, 0,10, 0.00,60.00,Sunday
143,0.0
192,59701435.742314816
2,15, 1,15, 0,11, 0.00,60.00,Sunday
143,0.0
192,191421805.76670593
2,15, 1,15, 0,12, 0.00,60.00,Sunday
143,0.0
192,330247011.0906262
2,15, 1,15, 0,13, 0.00,60.00,Sunday
143,0.0
192,459959481.1894098
2,15, 1,15, 0,14, 0.00,60.00,Sunday
143,0.0
192,545278421.6424986
2,15, 1,15, 0,15, 0.00,60.00,Sunday
143,0.0
192,566871025.5417593
2,15, 1,15, 0,16, 0.00,60.00,Sunday
143,0.0
192,536947888.124334
2,15, 1,15, 0,17, 0.00,60.00,Sunday
143,0.0
192,455224299.3243495
2,15, 1,15, 0,18, 0.00,60.00,Sunday
143,8.731149137020111e-9
192,317802679.37588966
2,15, 1,15, 0,19, 0.00,60.00,Sunday
143,4.3655745685100555e-9
192,175672002.06224772
2,15, 1,15, 0,20, 0.00,60.00,Sunday
143,6.548361852765083e-9
192,85117589.17120856
2,15, 1,15, 0,21, 0.00,60.00,Sunday
143,1.0913936421275139e-9
192,33055568.465676315
2,15, 1,15, 0,22, 0.00,60.00,Sunday
143,5687276.585770072
192,2242676.0775208054
2,15, 1,15, 0,23, 0.00,60.00,Sunday
143,31984138.051295184
192,0.0
2,15, 1,15, 0,24, 0.00,60.00,Sunday
143,49439188.42091155
192,0.0
2,16, 1,16, 0, 1, 0.00,60.00,Monday
143,59496799.70063316
192,0.0
2,16, 1,16, 0, 2, 0.00,60.00,Monday
143,70400409.1671362
192,0.0
2,16, 1,16, 0, 3, 0.00,60.00,Monday
143,80683890.03225462
192,0.0
2,16, 1,16, 0, 4, 0.00,60.00,Monday
143,91663710.06184244
192,0.0
2,16, 1,16, 0, 5, 0.00,60.00,Monday
143,101759619.37379922
192,0.0
2,16, 1,16, 0, 6, 0.00,60.00,Monday
143,106982841.93722996
192,0.0
2,16, 1,16, 0, 7, 0.00,60.00,Monday
143,107664938.62518221
192,0.0
2,16, 1,16, 0, 8, 0.00,60.00,Monday
143,104970583.9491095
192,0.0
2,16, 1,16, 0, 9, 0.00,60.00,Monday
143,86930909.42575838
192,0.0
2,16, 1,16, 0,10, 0.00,60.00,Monday
143,58760468.58948065
192,0.0
2,16, 1,16, 0,11, 0.00,60.00,Monday
143,33500020.010515675
192,0.0
2,16, 1,16, 0,12, 0.00,60.00,Monday
143,11678479.071505275
192,1625034.796047322
2,16, 1,16, 0,13, 0.00,60.00,Monday
143,0.0
192,24874022.67009592
2,16, 1,16, 0,14, 0.00,60.00,Monday
143,0.0
192,46208609.77352918
2,16, 1,16, 0,15, 0.00,60.00,Monday
143,0.0
192,56759161.40437414
2,16, 1,16, 0,16, 0.00,60.00,Monday
143,0.0
192,52797024.64561009
2,16, 1,16, 0,17, 0.00,60.00,Monday
143,0.0
192,35759169.934940234
2,16, 1,16, 0,18, 0.00,60.00,Monday
143,998388.1288625302
192,11636362.779903445
2,16, 1,16, 0,19, 0.00,60.00,Monday
143,27027352.242866203
192,0.0
2,16, 1,16, 0,20, 0.00,60.00,Monday
143,56757850.13116888
192,0.0
2,16, 1,16, 0,21, 0.00,60.00,Monday
143,82989593.89265087
192,0.0
2,16, 1,16, 0,22, 0.00,60.00,Monday
143,108438192.68484639
192,0.0
2,16, 1,16, 0,23, 0.00,60.00,Monday
143,140966861.75258815
192,0.0
2,16, 1,16, 0,24, 0.00,60.00,Monday
143,160245969.36361155
192,0.0
2,17, 1,17, 0, 1, 0.00,60.00,Tuesday
143,164133944.23444054
192,0.0
2,17, 1,17, 0, 2, 0.00,60.00,Tuesday
143,165919990.94903734
192,0.0
2,17, 1,17, 0, 3, 0.00,60.00,Tuesday
143,165510125.5142468
192,0.0
2,17, 1,17, 0, 4, 0.00,60.00,Tuesday
143,165936025.8914047
192,0.0
2,17, 1,17, 0, 5, 0.00,60.00,Tuesday
143,166595576.22944587
192,0.0
2,17, 1,17, 0, 6, 0.00,60.00,Tuesday
143,154382416.47535765
192,0.0
2,17, 1,17, 0, 7, 0.00,60.00,Tuesday
143,134192858.98931736
192,0.0
2,17, 1,17, 0, 8, 0.00,60.00,Tuesday
143,110925539.67226447
192,0.0
2,17, 1,17, 0, 9, 0.00,60.00,Tuesday
143,68753167.25018997
192,0.0
2,17, 1,17, 0,10, 0.00,60.00,Tuesday
143,28863103.038993433
192,0.0
2,17, 1,17, 0,11, 0.00,60.00,Tuesday
143,13776452.447954519
192,0.0
2,17, 1,17, 0,12, 0.00,60.00,Tuesday
143,0.0
192,96699634.02819297
2,17, 1,17, 0,13, 0.00,60.00,Tuesday
143,0.0
192,311491692.04848665
2,17, 1,17, 0,14, 0.00,60.00,Tuesday
143,0.0
192,446161777.76277405
2,17, 1,17, 0,15, 0.00,60.00,Tuesday
143,0.0
192,499711250.03909546
2,17, 1,17, 0,16, 0.00,60.00,Tuesday
143,0.0
192,495212963.5410398
2,17, 1,17, 0,17, 0.00,60.00,Tuesday
143,1.7462298274040222e-8
192,437875226.33248544
2,17, 1,17, 0,18, 0.00,60.00,Tuesday
143,0.0
192,322083627.5548803
2,17, 1,17, 0,19, 0.00,60.00,Tuesday
143,0.0
192,179360934.3607296
2,17, 1,17, 0,20, 0.00,60.00,Tuesday
143,0.0
192,88326932.31550235
2,17, 1,17, 0,21, 0.00,60.00,Tuesday
143,0.0
192,35370652.60745277
2,17, 1,17, 0,22, 0.00,60.00,Tuesday
143,7341431.310380295
192,2422839.1352129215
2,17, 1,17, 0,23, 0.00,60.00,Tuesday
143,39993256.93831737
192,0.0
2,17, 1,17, 0,24, 0.00,60.00,Tuesday
143,57367878.734786615
192,0.0
2,18, 1,18, 0, 1, 0.00,60.00,Wednesday
143,64283560.93872632
192,0.0
2,18, 1,18, 0, 2, 0.00,60.00,Wednesday
143,73734002.7420572
192,0.0
2,18, 1,18, 0, 3, 0.00,60.00,Wednesday
143,83371468.12284383
192,0.0
2,18, 1,18, 0, 4, 0.00,60.00,Wednesday
143,89965048.78274384
192,0.0
2,18, 1,18, 0, 5, 0.00,60.00,Wednesday
143,83899411.01479888
192,0.0
2,18, 1,18, 0, 6, 0.00,60.00,Wednesday
143,96909185.96981834
192,0.0
2,18, 1,18, 0, 7, 0.00,60.00,Wednesday
143,121255351.21533251
192,0.0
2,18, 1,18, 0, 8, 0.00,60.00,Wednesday
143,130857613.22041197
192,0.0
2,18, 1,18, 0, 9, 0.00,60.00,Wednesday
143,126576888.74400482
192,0.0
2,18, 1,18, 0,10, 0.00,60.00,Wednesday
143,108914771.18683267
192,0.0
2,18, 1,18, 0,11, 0.00,60.00,Wednesday
143,64482710.64272825
192,0.0
2,18, 1,18, 0,12, 0.00,60.00,Wednesday
143,13976773.003856327
192,8862254.939350303
2,18, 1,18, 0,13, 0.00,60.00,Wednesday
143,0.0
192,102155252.09353769